                  Welcome to Q-Chem
     A Quantum Leap Into The Future Of Chemistry


 Q-Chem 6.2 (devel), Q-Chem, Inc., Pleasanton, CA (2024)

 E. Epifanovsky,  A. T. B. Gilbert,  Xintian Feng,  Joonho Lee,  Yuezhi Mao,  
 N. Mardirossian,  P. Pokhilko,  A. White,  M. Wormit,  M. P. Coons,  
 A. L. Dempwolff,  Zhengting Gan,  D. Hait,  P. R. Horn,  L. D. Jacobson,  
 I. Kaliman,  J. Kussmann,  A. W. Lange,  Ka Un Lao,  D. S. Levine,  Jie Liu,  
 S. C. McKenzie,  A. F. Morrison,  K. D. Nanda,  F. Plasser,  D. R. Rehn,  
 M. L. Vidal,  Zhi-Qiang You,  Ying Zhu,  Huseyin Aksu,  B. Alam,  
 B. Albrecht,  A. Aldossary,  E. Alguire,  J. H. Andersen,  
 J. E. Arias-Martinez,  V. Athavale,  D. Barton,  K. Begam,  A. Behn,  
 N. Bellonzi,  Y. A. Bernard,  E. J. Berquist,  H. Burton,  A. Carreras,  
 K. Carter-Fenk,  Mathew Chow,  Romit Chakraborty,  Chandrima Chakravarty,  
 Junhan Chen,  A. D. Chien,  K. D. Closser,  V. Cofer-Shabica,  L. Cunha,  
 S. Dasgupta,  Jia Deng,  Joseph Dickinson,  M. de Wergifosse,  
 M. Diedenhofen,  Hainam Do,  Wenjie Dou,  S. Ehlert,  Po-Tung Fang,  
 S. Fatehi,  Qingguo Feng,  Jonathan Fetherolf,  T. Friedhoff,  
 Thomas Froitzheim,  Sarai Folkestad,  B. Ganoe,  J. Gayvert,  Qinghui Ge,  
 G. Gidofalvi,  M. Gimferrer,  M. Goldey,  Montgomery Gray,  J. Gomes,  
 C. Gonzalez-Espinoza,  S. Gulania,  A. Gunina,  J. A. Gyamfi,  
 M. W. D. Hanson-Heine,  P. H. P. Harbach,  A. W. Hauser,  M. F. Herbst,  
 M. Hernandez Vera,  M. Hodecker,  Z. C. Holden,  S. Houck,  Xunkun Huang,  
 Kerwin Hui,  B. C. Huynh,  K. Ikeda,  M. Ivanov,  Nayanthara K. Jayadev,  
 Hyunjun Ji,  Zuxin Jin,  Hanjie Jiang,  Subrata Jana,  B. Kaduk,  
 S. Kaehler,  R. Kang,  K. Khistyaev,  Jaehoon Kim,  Yongbin Kim,  
 P. Klunzinger,  Z. Koczor-Benda,  Joong Hoon Koh,  D. Kosenkov,  
 Saikiran Kotaru,  L. Koulias,  T. Kowalczyk,  C. M. Krauter,  K. Kue,  
 A. Kunitsa,  T. Kus,  A. Landau,  K. V. Lawler,  D. Lefrancois,  S. Lehtola,  
 Rain Li,  Shaozhi Li,  Tao E. Li,  Yi-Pei Li,  Jiashu Liang,  M. Liebenthal,  
 Hung-Hsuan Lin,  You-Sheng Lin,  Fenglai Liu,  Kuan-Yu Liu,  Xiao Liu,  
 M. Loipersberger,  A. Luenser,  C. Malbon,  Aniket Mandal,  Manisha,  
 A. Manjanath,  P. Manohar,  E. Mansoor,  S. F. Manzer,  Shan-Ping Mao,  
 A. V. Marenich,  T. Markovich,  S. Mason,  F. Matz,  S. A. Maurer,  
 Samuel May,  Alexandra McIsaac,  P. F. McLaughlin,  M. F. S. J. Menger,  
 J.-M. Mewes,  S. A. Mewes,  P. Morgante,  Mohammad Mostafanejad,  
 Madhubani Mukherjee,  J. W. Mullinax,  Quyen Nguyen,  Avik Kumar Ojha,  
 K. J. Oosterbaan,  Eno Paenurk,  Xiaoliang Pan,  G. Paran,  V. Parravicini,  
 Alexander C. Paul,  Suranjan K. Paul,  F. Pavosevic,  Zheng Pei,  S. Prager,  
 E. I. Proynov,  E. Ramos,  B. Rana,  A. E. Rask,  A. Rettig,  R. M. Richard,  
 F. Rob,  E. Rossomme,  T. Scheele,  M. Scheurer,  M. Schneider,  
 P. E. Schneider,  Tim K. Schramm,  N. Sergueev,  S. M. Sharada,  
 Hengyuan Shen,  W. Skomorowski,  D. W. Small,  C. J. Stein,  
 Alistair J. Sterling,  Yingli Su,  Yu-Chuan Su,  E. J. Sundstrom,  
 J. Talbot,  Zhen Tao,  J. Thirman,  Hung-Yi Tsai,  T. Tsuchimochi,  
 N. M. Tubman,  C. Utku,  S. P. Veccham,  O. Vydrov,  Rahel Weiss,  
 J. Wenzel,  Jonathan Wong,  J. Witte,  H. Wu,  Yanze Wu,  A. Yamada,  
 Chou-Hsun Yang,  Kun Yao,  S. Yeganeh,  S. R. Yost,  Qi Yu,  A. Zech,  
 F. Zeller,  Chongxiao Zhao,  Igor Ying Zhang,  Xing Zhang,  Yu Zhang,  
 D. Zuev,  A. Aspuru-Guzik,  A. T. Bell,  N. A. Besley,  K. B. Bravaya,  
 B. R. Brooks,  D. Casanova,  Jeng-Da Chai,  Hsing-Ta Chen,  S. Coriani,  
 C. J. Cramer,  A. E. DePrince, III,  R. A. DiStasio Jr.,  A. Dreuw,  
 B. D. Dunietz,  T. R. Furlani,  W. A. Goddard III,  S. Grimme,  
 S. Hammes-Schiffer,  T. Head-Gordon,  W. J. Hehre,  Chao-Ping Hsu,  
 T.-C. Jagau,  Yousung Jung,  A. Klamt,  Jing Kong,  D. S. Lambrecht,  
 Xiangyuan Li,  WanZhen Liang,  N. J. Mayhall,  C. W. McCurdy,  J. B. Neaton,  
 T. Neudecker,  C. Ochsenfeld,  J. A. Parkhill,  R. Peverati,  
 V. A. Rassolov,  Haisheng Ren,  Yihan Shao,  L. V. Slipchenko,  
 R. P. Steele,  J. E. Subotnik,  A. J. W. Thom,  A. Tkatchenko,  
 D. G. Truhlar,  T. Van Voorhis,  Fan Wang,  T. A. Wesolowski,  K. B. Whaley,  
 H. L. Woodcock III,  P. M. Zimmerman,  S. Faraji,  P. M. W. Gill,  
 M. Head-Gordon,  J. M. Herbert,  A. I. Krylov

 Contributors to earlier versions of Q-Chem not listed above: 
 R. D. Adamson,  B. Austin,  R. Baer,  J. Baker,  G. J. O. Beran,  
 K. Brandhorst,  S. T. Brown,  E. F. C. Byrd,  Arup K. Chakraborty,  
 G. K. L. Chan,  Chun-Min Chang,  Yunqing Chen,  C.-L. Cheng,  
 Siu Hung Chien,  D. M. Chipman,  D. L. Crittenden,  H. Dachsel,  
 R. J. Doerksen,  A. D. Dutoi,  R. G. Edgar,  J. Fosso-Tande,  
 L. Fusti-Molnar,  D. Ghosh,  A. Ghysels,  A. Golubeva-Zadorozhnaya,  
 J. Gonthier,  M. S. Gordon,  S. R. Gwaltney,  G. Hawkins,  J. E. Herr,  
 A. Heyden,  S. Hirata,  E. G. Hohenstein,  G. Kedziora,  F. J. Keil,  
 C. Kelley,  Jihan Kim,  R. A. King,  R. Z. Khaliullin,  P. P. Korambath,  
 W. Kurlancheek,  A. Laurent,  A. M. Lee,  M. S. Lee,  S. V. Levchenko,  
 Ching Yeh Lin,  D. Liotard,  E. Livshits,  R. C. Lochan,  I. Lotan,  
 L. A. Martinez-Martinez,  P. E. Maslen,  N. Nair,  D. P. O'Neill,  
 D. Neuhauser,  E. Neuscamman,  C. M. Oana,  R. Olivares-Amaya,  R. Olson,  
 T. M. Perrine,  B. Peters,  P. A. Pieniazek,  A. Prociuk,  Y. M. Rhee,  
 J. Ritchie,  M. A. Rohrdanz,  E. Rosta,  N. J. Russ,  H. F. Schaefer III,  
 M. W. Schmidt,  N. E. Schultz,  S. Sharma,  N. Shenvi,  C. D. Sherrill,  
 A. C. Simmonett,  A. Sodt,  T. Stein,  D. Stuck,  K. S. Thanthiriwatte,  
 V. Vanovschi,  L. Vogt,  Tao Wang,  A. Warshel,  M. A. Watson,  
 C. F. Williams,  Q. Wu,  X. Xu,  Jun Yang,  W. Zhang,  Yan Zhao

   Please cite Q-Chem as follows:
  "Software for the frontiers of quantum chemistry:
   An overview of developments in the Q-Chem 5 package"
   J. Chem. Phys. 155, 084801 (2021)
   https://doi.org/10.1063/5.0055522 (open access)

 Q-Chem 6.2.1 for Intel X86 EM64T Linux

 Parts of Q-Chem use Armadillo 9.900.5 (Nocturnal Misbehaviour).
 http://arma.sourceforge.net/

 Q-Chem begins on Tue May  6 19:46:34 2025  

 Host: n28c32n2
0

     Scratch files written to /scratch/leuven/372/vsc37243/qchem3289560//
 Processing $rem in /data/leuven/372/vsc37243/qchem-dyson-EA-NoL/config/preferences:
 Processing $rem in /user/leuven/372/vsc37243/.qchemrc:

 Checking the input file for inconsistencies... 	...done.

--------------------------------------------------------------
User input:
--------------------------------------------------------------
$molecule
0 1
C 0.000000 0.000000 0.000000
C -0.746907 -1.288750 0.044623
C 0.021745 -2.569166 -0.000000
C 1.366152 -2.533838 0.002684
C 2.127142 -1.266540 0.000000
C 1.367901 0.000000 0.029472
O -1.974175 -1.313865 0.146738
C -0.788159 -3.829555 -0.019921
O 3.357976 -1.272804 -0.063246
O 2.088121 1.150859 0.124924
C 2.246402 1.877060 -1.113299
O -0.626223 1.195560 0.031403
C -1.996547 1.359569 -0.412331
H -1.445850 -3.850126 -0.896106
H -0.136224 -4.705935 -0.039243
H -1.441762 -3.880706 0.857377
H -2.694228 1.023065 0.353957
H -2.089833 2.433790 -0.580829
H -2.174155 0.811865 -1.340716
H 2.808696 1.269546 -1.830707
H 1.269558 2.153446 -1.524746
H 2.812735 2.773212 -0.858303
H 1.968018 -3.439281 -0.008013
O -9.028921 -1.287638 -7.054489
H -9.080224 -1.288032 -8.017983
H -9.961080 -1.287728 -6.805422
$end

$rem
   CCMAN2                       1
   MEM_TOTAL                    120000
   CC_MEMORY			115000
   MEM_STATIC                   2000
   METHOD                       cc2
   BASIS                        gen
   PURECART                     11
   AUX_BASIS                    rimp2-aug-cc-pVDZ
   N_FROZEN_CORE                fc
   EA_STATES                    [2]
   SCF_CONVERGENCE              10
   MAX_SCF_CYCLES               200
   CC_CONVERGENCE               8
   EOM_DAVIDSON_CONVERGENCE     8
   CC_TRANS_PROP		TRUE
   CC_DO_DYSON			TRUE
   CC_EOM_PROP			TRUE
   !PRINT_ORBITALS               TRUE
$end

$basis
H     0
S   4   1.00
      1.301000D+01           1.968500D-02
      1.962000D+00           1.379770D-01
      4.446000D-01           4.781480D-01
      1.220000D-01           5.012400D-01
S   1   1.00
      1.220000D-01           1.000000D+00
S   1   1.00
      0.0297400              1.0000000
S   1   1.00
      0.01487              1.0000000
S   1   1.00
      0.007435              1.0000000
S   1   1.00
      0.0037175              1.0000000
P   1   1.00
      7.270000D-01           1.0000000
P   1   1.00
      0.1410000              1.0000000
****
C     0
S   9   1.00
      6.665000D+03           6.920000D-04
      1.000000D+03           5.329000D-03
      2.280000D+02           2.707700D-02
      6.471000D+01           1.017180D-01
      2.106000D+01           2.747400D-01
      7.495000D+00           4.485640D-01
      2.797000D+00           2.850740D-01
      5.215000D-01           1.520400D-02
      1.596000D-01          -3.191000D-03
S   9   1.00
      6.665000D+03          -1.460000D-04
      1.000000D+03          -1.154000D-03
      2.280000D+02          -5.725000D-03
      6.471000D+01          -2.331200D-02
      2.106000D+01          -6.395500D-02
      7.495000D+00          -1.499810D-01
      2.797000D+00          -1.272620D-01
      5.215000D-01           5.445290D-01
      1.596000D-01           5.804960D-01
S   1   1.00
      1.596000D-01           1.000000D+00
S   1   1.00
      0.0469000              1.0000000
S   1   1.00
      0.02345              1.0000000
S   1   1.00
      0.011725              1.0000000
S   1   1.00
      0.0058625              1.0000000
S   1   1.00
      0.00293125              1.0000000
S   1   1.00
      0.00146562              1.0000000
S   1   1.00
      0.00073281              1.0000000
P   4   1.00
      9.439000D+00           3.810900D-02
      2.002000D+00           2.094800D-01
      5.456000D-01           5.085570D-01
      1.517000D-01           4.688420D-01
P   1   1.00
      1.517000D-01           1.000000D+00
P   1   1.00
      0.0404100              1.0000000
P   1   1.00
      0.020205              1.0000000
P   1   1.00
      0.0101025              1.0000000
P   1   1.00
      0.00505125              1.0000000
D   1   1.00
      5.500000D-01           1.0000000
D   1   1.00
      0.1510000              1.0000000
****
N     0
S   9   1.00
      9.046000D+03           7.000000D-04
      1.357000D+03           5.389000D-03
      3.093000D+02           2.740600D-02
      8.773000D+01           1.032070D-01
      2.856000D+01           2.787230D-01
      1.021000D+01           4.485400D-01
      3.838000D+00           2.782380D-01
      7.466000D-01           1.544000D-02
      2.248000D-01          -2.864000D-03
S   9   1.00
      9.046000D+03          -1.530000D-04
      1.357000D+03          -1.208000D-03
      3.093000D+02          -5.992000D-03
      8.773000D+01          -2.454400D-02
      2.856000D+01          -6.745900D-02
      1.021000D+01          -1.580780D-01
      3.838000D+00          -1.218310D-01
      7.466000D-01           5.490030D-01
      2.248000D-01           5.788150D-01
S   1   1.00
      2.248000D-01           1.000000D+00
S   1   1.00
      0.0612400              1.0000000
S   1   1.00
      0.03062              1.0000000
S   1   1.00
      0.01531              1.0000000
S   1   1.00
      0.007655              1.0000000
S   1   1.00
      0.0038275              1.0000000
S   1   1.00
      0.00191375              1.0000000
S   1   1.00
      0.000956875              1.0000000
P   4   1.00
      1.355000D+01           3.991900D-02
      2.917000D+00           2.171690D-01
      7.973000D-01           5.103190D-01
      2.185000D-01           4.622140D-01
P   1   1.00
      2.185000D-01           1.000000D+00
P   1   1.00
      0.0561100              1.0000000
P   1   1.00
      0.028055              1.0000000
P   1   1.00
      0.0140275              1.0000000
P   1   1.00
      0.00701375              1.0000000
D   1   1.00
      8.170000D-01           1.0000000
D   1   1.00
      0.2300000              1.0000000
****
O     0
S   9   1.00
      1.172000D+04           7.100000D-04
      1.759000D+03           5.470000D-03
      4.008000D+02           2.783700D-02
      1.137000D+02           1.048000D-01
      3.703000D+01           2.830620D-01
      1.327000D+01           4.487190D-01
      5.025000D+00           2.709520D-01
      1.013000D+00           1.545800D-02
      3.023000D-01          -2.585000D-03
S   9   1.00
      1.172000D+04          -1.600000D-04
      1.759000D+03          -1.263000D-03
      4.008000D+02          -6.267000D-03
      1.137000D+02          -2.571600D-02
      3.703000D+01          -7.092400D-02
      1.327000D+01          -1.654110D-01
      5.025000D+00          -1.169550D-01
      1.013000D+00           5.573680D-01
      3.023000D-01           5.727590D-01
S   1   1.00
      3.023000D-01           1.000000D+00
S   1   1.00
      0.0789600              1.0000000
S   1   1.00
      0.03948              1.0000000
S   1   1.00
      0.01974              1.0000000
S   1   1.00
      0.00987              1.0000000
S   1   1.00
      0.004935              1.0000000
S   1   1.00
      0.0024675              1.0000000
S   1   1.00
      0.00123375              1.0000000
P   4   1.00
      1.770000D+01           4.301800D-02
      3.854000D+00           2.289130D-01
      1.046000D+00           5.087280D-01
      2.753000D-01           4.605310D-01
P   1   1.00
      2.753000D-01           1.000000D+00
P   1   1.00
      0.0685600              1.0000000
P   1   1.00
      0.03428              1.0000000
P   1   1.00
      0.01714              1.0000000
P   1   1.00
      0.00857              1.0000000
D   1   1.00
      1.185000D+00           1.0000000
D   1   1.00
      0.3320000              1.0000000
****
S     0
S   12   1.00
      1.108000D+05           2.476350D-04
      1.661000D+04           1.920260D-03
      3.781000D+03           9.961920D-03
      1.071000D+03           4.029750D-02
      3.498000D+02           1.286040D-01
      1.263000D+02           3.034800D-01
      4.926000D+01           4.214320D-01
      2.016000D+01           2.307810D-01
      5.720000D+00           1.789710D-02
      2.182000D+00          -2.975160D-03
      4.327000D-01           8.495220D-04
      1.570000D-01          -3.679360D-04
S   12   1.00
      1.108000D+05          -6.870390D-05
      1.661000D+04          -5.276810D-04
      3.781000D+03          -2.796710D-03
      1.071000D+03          -1.126510D-02
      3.498000D+02          -3.888340D-02
      1.263000D+02          -9.950250D-02
      4.926000D+01          -1.997400D-01
      2.016000D+01          -1.233600D-01
      5.720000D+00           5.131940D-01
      2.182000D+00           6.071200D-01
      4.327000D-01           3.967530D-02
      1.570000D-01          -9.468640D-03
S   12   1.00
      1.108000D+05           1.990770D-05
      1.661000D+04           1.534830D-04
      3.781000D+03           8.095030D-04
      1.071000D+03           3.289740D-03
      3.498000D+02           1.129670D-02
      1.263000D+02           2.963850D-02
      4.926000D+01           5.998510D-02
      2.016000D+01           4.132480D-02
      5.720000D+00          -2.074740D-01
      2.182000D+00          -3.928890D-01
      4.327000D-01           6.328400D-01
      1.570000D-01           5.569240D-01
S   1   1.00
      1.570000D-01           1.000000D+00
S   1   1.00
      0.0507000              1.0000000
S   1   1.00
      0.02535              1.0000000
S   1   1.00
      0.012675              1.0000000
S   1   1.00
      0.0063375              1.0000000
S   1   1.00
      0.00316875              1.0000000
S   1   1.00
      0.00158438              1.0000000
S   1   1.00
      0.00079219              1.0000000
P   8   1.00
      3.997000D+02           4.475410D-03
      9.419000D+01           3.417080D-02
      2.975000D+01           1.442500D-01
      1.077000D+01           3.539280D-01
      4.119000D+00           4.590850D-01
      1.625000D+00           2.063830D-01
      4.726000D-01           1.021410D-02
      1.407000D-01          -6.031220D-05
P   8   1.00
      3.997000D+02          -1.162510D-03
      9.419000D+01          -8.656640D-03
      2.975000D+01          -3.908860D-02
      1.077000D+01          -9.346250D-02
      4.119000D+00          -1.479940D-01
      1.625000D+00           3.019040D-02
      4.726000D-01           5.615730D-01
      1.407000D-01           5.347760D-01
P   1   1.00
      1.407000D-01           1.000000D+00
P   1   1.00
      0.0399000              1.0000000
P   1   1.00
      0.01995              1.0000000
P   1   1.00
      0.009975              1.0000000
P   1   1.00
      0.0049875              1.0000000
D   1   1.00
      4.790000D-01           1.0000000
D   1   1.00
      0.1520000              1.0000000
****
$end

--------------------------------------------------------------
 ----------------------------------------------------------------
             Standard Nuclear Orientation (Angstroms)
    I     Atom           X                Y                Z
 ----------------------------------------------------------------
    1      C      -0.8369716699     0.5128150735    -0.5502751506
    2      C      -0.1226200746    -0.7796783680    -0.7500258538
    3      C      -0.6689867111    -2.0121595009    -0.1060103278
    4      C      -1.8305532457    -1.9463701988     0.5686157957
    5      C      -2.5765779425    -0.6822710664     0.7437093138
    6      C      -2.0296819576     0.5395500044     0.1196122709
    7      O       0.8845984753    -0.8517642926    -1.4554047537
    8      C       0.1300307538    -3.2664984098    -0.2880179079
    9      O      -3.6041471890    -0.6480254062     1.4233565077
   10      O      -2.7815243102     1.6703614314     0.2107328734
   11      C      -2.3474682773     2.6134236915     1.2146481581
   12      O      -0.4004288859     1.6676329802    -1.0964721002
   13      C       0.9909224223     1.8775032226    -1.4453025725
   14      H       1.1387857194    -3.1425918161     0.1215444772
   15      H      -0.3579276969    -4.1091596996     0.2072123307
   16      H       0.2550632801    -3.4918839062    -1.3524582926
   17      H       1.2305121222     1.3907979905    -2.3902395077
   18      H       1.0779777279     2.9619562875    -1.5314857178
   19      H       1.6508627823     1.5040119956    -0.6589146237
   20      H      -2.4264720014     2.1600823223     2.2087115644
   21      H      -1.3193515476     2.9371147315     1.0194504230
   22      H      -3.0285796199     3.4611925560     1.1357829238
   23      H      -2.2776263974    -2.8203460888     1.0360298251
   24      O      10.5813802756     0.3198752260     1.0400877513
   25      H      11.1104548978     0.4937464693     1.8279974390
   26      H      11.2587140230     0.2525529590     0.3562445772
 ----------------------------------------------------------------
 Molecular Point Group                 C1    NOp =  1
 Largest Abelian Subgroup              C1    NOp =  1
 Nuclear Repulsion Energy =         857.47510722 hartrees
 There are       53 alpha and       53 beta electrons
 Requested basis set is non-standard
 There are 348 shells and 676 basis functions
 Total memory of 120000 MB is distributed as follows: 
   MEM_STATIC is set to 2000 MB
   QALLOC/CCMAN JOB total memory use is  118000 MB
 Warning: actual memory use might exceed 120000 MB

 Total QAlloc Memory Limit 120000 MB
 Mega-Array Size      1956 MB
 MEM_STATIC part      2000 MB

 Requested basis set is rimp2-aug-cc-pVDZ
 There are 416 shells and 1284 basis functions
 A cutoff of  1.0D-14 yielded  58553 shell pairs
 There are    216081 function pairs (    233647 Cartesian)
 Smallest overlap matrix eigenvalue = 2.29E-11
 Linear dependence detected in AO basis
 Tighter screening thresholds may be required for diffuse basis sets
 Use S2THRESH > 14 and THRESH = 14 in case of SCF convergence issues
 Number of orthogonalized atomic orbitals = 601
 Maximum deviation from orthogonality = 3.020E-10

 Scale SEOQF with 1.000000e-02/1.000000e-02/1.000000e-02

 Standard Electronic Orientation quadrupole field applied
 Nucleus-field energy     =     0.0000000064 hartrees
 ================ Generating on-the-fly SAD Guess ================
 Attempting to make child job directory: /scratch/leuven/372/vsc37243/qchem3289560//Frg1/
 Attempting to make child job directory: /scratch/leuven/372/vsc37243/qchem3289560//Frg2/
 Attempting to make child job directory: /scratch/leuven/372/vsc37243/qchem3289560//Frg3/
 Creating input file /scratch/leuven/372/vsc37243/qchem3289560/Frg1.input
 using default PutDataFrgm: nothing
 calling putenv with: QCSCRATCH=/scratch/leuven/372/vsc37243/qchem3289560/ 
 Spawning Job For Fragment 0
 Done Job For Fragment 0
 calling putenv with: QCSCRATCH=/scratch/leuven/372/vsc37243 
 calling putenv with: QCTHREADS=36 
 Creating input file /scratch/leuven/372/vsc37243/qchem3289560/Frg2.input
 using default PutDataFrgm: nothing
 calling putenv with: QCSCRATCH=/scratch/leuven/372/vsc37243/qchem3289560/ 
 Spawning Job For Fragment 1
 Done Job For Fragment 1
 calling putenv with: QCSCRATCH=/scratch/leuven/372/vsc37243 
 calling putenv with: QCTHREADS=36 
 Creating input file /scratch/leuven/372/vsc37243/qchem3289560/Frg3.input
 using default PutDataFrgm: nothing
 calling putenv with: QCSCRATCH=/scratch/leuven/372/vsc37243/qchem3289560/ 
 Spawning Job For Fragment 2
 Done Job For Fragment 2
 calling putenv with: QCSCRATCH=/scratch/leuven/372/vsc37243 
 calling putenv with: QCTHREADS=36 
 Time for running child jobs:  CPU 1.62 s  wall 33.68 s
 ============= Method Specific SAD Guess Constructed =============
 Guess from on-the-fly superposition of atomic densities
 Warning: Energy on first SCF cycle will be non-variational

 -----------------------------------------------------------------------
  General SCF calculation program by
  Eric Jon Sundstrom, Paul Horn, Yuezhi Mao, Dmitri Zuev, Alec White,
  David Stuck, Shaama M.S., Shane Yost, Joonho Lee, David Small,
  Daniel Levine, Susi Lehtola, Hugh Burton, Evgeny Epifanovsky,
  Bang C. Huynh
 -----------------------------------------------------------------------
 Hartree-Fock
 using 36 threads for integral computing
 -------------------------------------------------------
 OpenMP Integral computing Module                
 Release: version 1.0, May 2013, Q-Chem Inc. Pittsburgh 
 -------------------------------------------------------
 A restricted SCF calculation will be
 performed using DIIS
 SCF converges when DIIS error is below 1.0e-10
 ---------------------------------------
  Cycle       Energy         DIIS error
 ---------------------------------------
    1    -726.3154294381      2.19e-02  
    2    -721.8111608333      2.67e-03  
    3    -721.9768112490      2.16e-03  
    4    -722.1372838933      3.39e-04  
    5    -722.1440905215      1.23e-04  
    6    -722.1449056371      3.39e-05  
    7    -722.1450311546      1.64e-05  
    8    -722.1450623174      6.35e-06  
    9    -722.1450666376      2.58e-06  
   10    -722.1450672729      8.81e-07  
   11    -722.1450673479      3.04e-07  
   12    -722.1450673593      1.09e-07  
   13    -722.1450673613      5.90e-08  
   14    -722.1450673620      2.89e-08  
   15    -722.1450673622      1.35e-08  
   16    -722.1450673623      4.37e-09  
   17    -722.1450673623      2.00e-09  
   18    -722.1450673623      9.66e-10  
   19    -722.1450673623      3.35e-10  
   20    -722.1450673623      1.51e-10  
   21    -722.1450673623      6.12e-11  Convergence criterion met
 ---------------------------------------
 SCF time:   CPU 11058.68s  wall 491.00s 
 SCF   energy =  -722.14506736
 Total energy =  -722.14506736


 ------------------------------------------------------------------------------

   CCMAN2: suite of methods based on coupled cluster
           and equation of motion theories.

   Components:
   * libvmm-1.3-trunk
     by Evgeny Epifanovsky, Ilya Kaliman.
   * libtensor-2.5-trunk
     by Evgeny Epifanovsky, Michael Wormit, Dmitry Zuev, Sam Manzer, 
        Ilya Kaliman.
   * libcc-2.5-trunk
     by Evgeny Epifanovsky, Arik Landau, Tomasz Kus, Kirill Khistyaev, 
        Dmitry Zuev, Prashant Manohar, Xintian Feng, Anna Krylov, 
        Matthew Goldey, Alec White, Thomas Jagau, Kaushik Nanda, 
        Anastasia Gunina, Alexander Kunitsa, Joonho Lee.

   CCMAN original authors:
   Anna I. Krylov, C. David Sherrill, Steven R. Gwaltney,
   Edward F. C. Byrd (2000)
   Sergey V. Levchenko, Lyudmila V. Slipchenko, Tao Wang,
   Ana-Maria C. Cristian (2003)
   Piotr A. Pieniazek, C. Melania Oana, Evgeny Epifanovsky (2007)
   Prashant Manohar (2009)

 ------------------------------------------------------------------------------


 Allocating and initializing 115000MB of RAM (this may take a while)...
 Calculation will run on 36 cores.


 Alpha MOs, Restricted
 -- Occupied --                  
-20.610 -20.591 -20.591 -20.582 -20.574 -11.376 -11.357 -11.339
  1 A     2 A     3 A     4 A     5 A     6 A     7 A     8 A                  
-11.321 -11.297 -11.291 -11.290 -11.275 -11.251  -1.439  -1.415
  9 A    10 A    11 A    12 A    13 A    14 A    15 A    16 A                  
 -1.403  -1.383  -1.357  -1.154  -1.076  -0.996  -0.970  -0.943
 17 A    18 A    19 A    20 A    21 A    22 A    23 A    24 A                  
 -0.913  -0.835  -0.812  -0.745  -0.712  -0.709  -0.705  -0.668
 25 A    26 A    27 A    28 A    29 A    30 A    31 A    32 A                  
 -0.658  -0.646  -0.635  -0.629  -0.614  -0.604  -0.591  -0.588
 33 A    34 A    35 A    36 A    37 A    38 A    39 A    40 A                  
 -0.571  -0.558  -0.557  -0.544  -0.536  -0.521  -0.512  -0.511
 41 A    42 A    43 A    44 A    45 A    46 A    47 A    48 A                  
 -0.472  -0.442  -0.435  -0.396  -0.347
 49 A    50 A    51 A    52 A    53 A                                          
 -- Virtual --                   
  0.000   0.001   0.001   0.001   0.002   0.002   0.003   0.003
 54 A    55 A    56 A    57 A    58 A    59 A    60 A    61 A                  
  0.003   0.004   0.004   0.005   0.006   0.006   0.006   0.007
 62 A    63 A    64 A    65 A    66 A    67 A    68 A    69 A                  
  0.007   0.008   0.008   0.008   0.009   0.010   0.010   0.011
 70 A    71 A    72 A    73 A    74 A    75 A    76 A    77 A                  
  0.011   0.011   0.012   0.013   0.013   0.014   0.014   0.016
 78 A    79 A    80 A    81 A    82 A    83 A    84 A    85 A                  
  0.016   0.017   0.018   0.019   0.019   0.020   0.021   0.021
 86 A    87 A    88 A    89 A    90 A    91 A    92 A    93 A                  
  0.022   0.022   0.023   0.023   0.023   0.024   0.024   0.025
 94 A    95 A    96 A    97 A    98 A    99 A   100 A   101 A                  
  0.025   0.025   0.026   0.026   0.027   0.027   0.028   0.028
102 A   103 A   104 A   105 A   106 A   107 A   108 A   109 A                  
  0.029   0.030   0.030   0.033   0.034   0.036   0.038   0.038
110 A   111 A   112 A   113 A   114 A   115 A   116 A   117 A                  
  0.040   0.040   0.041   0.041   0.043   0.043   0.043   0.045
118 A   119 A   120 A   121 A   122 A   123 A   124 A   125 A                  
  0.045   0.047   0.047   0.048   0.049   0.049   0.050   0.052
126 A   127 A   128 A   129 A   130 A   131 A   132 A   133 A                  
  0.052   0.053   0.054   0.055   0.056   0.058   0.058   0.059
134 A   135 A   136 A   137 A   138 A   139 A   140 A   141 A                  
  0.059   0.061   0.062   0.062   0.063   0.063   0.064   0.065
142 A   143 A   144 A   145 A   146 A   147 A   148 A   149 A                  
  0.066   0.067   0.069   0.070   0.070   0.072   0.074   0.075
150 A   151 A   152 A   153 A   154 A   155 A   156 A   157 A                  
  0.078   0.079   0.080   0.082   0.084   0.085   0.088   0.088
158 A   159 A   160 A   161 A   162 A   163 A   164 A   165 A                  
  0.089   0.090   0.092   0.093   0.094   0.094   0.098   0.101
166 A   167 A   168 A   169 A   170 A   171 A   172 A   173 A                  
  0.103   0.103   0.105   0.107   0.108   0.109   0.112   0.113
174 A   175 A   176 A   177 A   178 A   179 A   180 A   181 A                  
  0.115   0.115   0.117   0.118   0.120   0.122   0.124   0.126
182 A   183 A   184 A   185 A   186 A   187 A   188 A   189 A                  
  0.127   0.129   0.130   0.131   0.132   0.132   0.132   0.135
190 A   191 A   192 A   193 A   194 A   195 A   196 A   197 A                  
  0.136   0.137   0.139   0.140   0.144   0.147   0.148   0.150
198 A   199 A   200 A   201 A   202 A   203 A   204 A   205 A                  
  0.152   0.153   0.155   0.156   0.161   0.162   0.163   0.167
206 A   207 A   208 A   209 A   210 A   211 A   212 A   213 A                  
  0.169   0.174   0.176   0.177   0.179   0.181   0.181   0.186
214 A   215 A   216 A   217 A   218 A   219 A   220 A   221 A                  
  0.187   0.188   0.189   0.192   0.196   0.197   0.203   0.206
222 A   223 A   224 A   225 A   226 A   227 A   228 A   229 A                  
  0.208   0.209   0.213   0.213   0.218   0.222   0.222   0.226
230 A   231 A   232 A   233 A   234 A   235 A   236 A   237 A                  
  0.229   0.234   0.234   0.240   0.241   0.245   0.246   0.250
238 A   239 A   240 A   241 A   242 A   243 A   244 A   245 A                  
  0.255   0.258   0.265   0.269   0.274   0.275   0.277   0.279
246 A   247 A   248 A   249 A   250 A   251 A   252 A   253 A                  
  0.283   0.285   0.289   0.291   0.293   0.298   0.302   0.305
254 A   255 A   256 A   257 A   258 A   259 A   260 A   261 A                  
  0.310   0.315   0.320   0.324   0.328   0.333   0.335   0.339
262 A   263 A   264 A   265 A   266 A   267 A   268 A   269 A                  
  0.342   0.352   0.354   0.357   0.360   0.365   0.369   0.376
270 A   271 A   272 A   273 A   274 A   275 A   276 A   277 A                  
  0.378   0.382   0.385   0.386   0.386   0.393   0.394   0.396
278 A   279 A   280 A   281 A   282 A   283 A   284 A   285 A                  
  0.399   0.400   0.400   0.404   0.406   0.410   0.414   0.421
286 A   287 A   288 A   289 A   290 A   291 A   292 A   293 A                  
  0.431   0.437   0.444   0.446   0.451   0.453   0.459   0.465
294 A   295 A   296 A   297 A   298 A   299 A   300 A   301 A                  
  0.470   0.472   0.478   0.480   0.485   0.488   0.492   0.501
302 A   303 A   304 A   305 A   306 A   307 A   308 A   309 A                  
  0.508   0.511   0.515   0.523   0.525   0.529   0.533   0.536
310 A   311 A   312 A   313 A   314 A   315 A   316 A   317 A                  
  0.544   0.548   0.549   0.551   0.558   0.562   0.570   0.576
318 A   319 A   320 A   321 A   322 A   323 A   324 A   325 A                  
  0.578   0.585   0.588   0.594   0.599   0.611   0.613   0.624
326 A   327 A   328 A   329 A   330 A   331 A   332 A   333 A                  
  0.630   0.634   0.638   0.647   0.653   0.656   0.671   0.672
334 A   335 A   336 A   337 A   338 A   339 A   340 A   341 A                  
  0.677   0.682   0.682   0.683   0.692   0.698   0.707   0.708
342 A   343 A   344 A   345 A   346 A   347 A   348 A   349 A                  
  0.716   0.717   0.720   0.723   0.727   0.733   0.742   0.748
350 A   351 A   352 A   353 A   354 A   355 A   356 A   357 A                  
  0.755   0.757   0.758   0.763   0.771   0.774   0.780   0.789
358 A   359 A   360 A   361 A   362 A   363 A   364 A   365 A                  
  0.795   0.805   0.810   0.816   0.824   0.825   0.832   0.840
366 A   367 A   368 A   369 A   370 A   371 A   372 A   373 A                  
  0.848   0.858   0.861   0.874   0.891   0.893   0.896   0.903
374 A   375 A   376 A   377 A   378 A   379 A   380 A   381 A                  
  0.904   0.908   0.917   0.925   0.946   0.948   0.952   0.967
382 A   383 A   384 A   385 A   386 A   387 A   388 A   389 A                  
  0.976   0.981   0.993   1.012   1.015   1.027   1.032   1.034
390 A   391 A   392 A   393 A   394 A   395 A   396 A   397 A                  
  1.047   1.057   1.073   1.083   1.093   1.101   1.110   1.120
398 A   399 A   400 A   401 A   402 A   403 A   404 A   405 A                  
  1.129   1.141   1.146   1.156   1.158   1.166   1.167   1.175
406 A   407 A   408 A   409 A   410 A   411 A   412 A   413 A                  
  1.183   1.194   1.208   1.218   1.232   1.246   1.255   1.275
414 A   415 A   416 A   417 A   418 A   419 A   420 A   421 A                  
  1.279   1.292   1.297   1.308   1.320   1.329   1.359   1.365
422 A   423 A   424 A   425 A   426 A   427 A   428 A   429 A                  
  1.377   1.393   1.412   1.418   1.431   1.441   1.450   1.464
430 A   431 A   432 A   433 A   434 A   435 A   436 A   437 A                  
  1.470   1.479   1.490   1.502   1.510   1.528   1.538   1.554
438 A   439 A   440 A   441 A   442 A   443 A   444 A   445 A                  
  1.555   1.567   1.570   1.596   1.609   1.613   1.623   1.662
446 A   447 A   448 A   449 A   450 A   451 A   452 A   453 A                  
  1.663   1.672   1.676   1.686   1.701   1.708   1.713   1.730
454 A   455 A   456 A   457 A   458 A   459 A   460 A   461 A                  
  1.734   1.756   1.763   1.771   1.774   1.777   1.783   1.796
462 A   463 A   464 A   465 A   466 A   467 A   468 A   469 A                  
  1.799   1.814   1.824   1.845   1.857   1.869   1.888   1.898
470 A   471 A   472 A   473 A   474 A   475 A   476 A   477 A                  
  1.903   1.920   1.929   1.936   1.949   1.951   1.963   1.972
478 A   479 A   480 A   481 A   482 A   483 A   484 A   485 A                  
  1.979   1.983   1.996   1.999   2.023   2.033   2.037   2.050
486 A   487 A   488 A   489 A   490 A   491 A   492 A   493 A                  
  2.065   2.077   2.090   2.108   2.117   2.120   2.149   2.158
494 A   495 A   496 A   497 A   498 A   499 A   500 A   501 A                  
  2.160   2.169   2.186   2.199   2.210   2.215   2.232   2.246
502 A   503 A   504 A   505 A   506 A   507 A   508 A   509 A                  
  2.253   2.266   2.273   2.275   2.284   2.295   2.309   2.313
510 A   511 A   512 A   513 A   514 A   515 A   516 A   517 A                  
  2.322   2.337   2.345   2.360   2.380   2.387   2.396   2.421
518 A   519 A   520 A   521 A   522 A   523 A   524 A   525 A                  
  2.439   2.448   2.463   2.491   2.501   2.510   2.523   2.528
526 A   527 A   528 A   529 A   530 A   531 A   532 A   533 A                  
  2.543   2.548   2.578   2.583   2.609   2.630   2.655   2.666
534 A   535 A   536 A   537 A   538 A   539 A   540 A   541 A                  
  2.675   2.695   2.721   2.733   2.747   2.762   2.795   2.804
542 A   543 A   544 A   545 A   546 A   547 A   548 A   549 A                  
  2.817   2.834   2.849   2.892   2.927   2.939   2.964   2.971
550 A   551 A   552 A   553 A   554 A   555 A   556 A   557 A                  
  3.010   3.039   3.050   3.068   3.086   3.131   3.145   3.165
558 A   559 A   560 A   561 A   562 A   563 A   564 A   565 A                  
  3.196   3.326   3.351   3.409   3.440   3.482   3.543   3.658
566 A   567 A   568 A   569 A   570 A   571 A   572 A   573 A                  
  3.699   3.701   3.710   3.715   3.766   3.814   3.821   3.836
574 A   575 A   576 A   577 A   578 A   579 A   580 A   581 A                  
  3.863   3.864   3.884   3.899   3.943   3.964   3.994   4.013
582 A   583 A   584 A   585 A   586 A   587 A   588 A   589 A                  
  4.028   4.045   4.077   4.090   4.119   4.165   4.189   4.192
590 A   591 A   592 A   593 A   594 A   595 A   596 A   597 A                  
  4.246   4.287   4.299   4.767
598 A   599 A   600 A   601 A                                                  

 Beta MOs, Restricted
 -- Occupied --                  
-20.610 -20.591 -20.591 -20.582 -20.574 -11.376 -11.357 -11.339
  1 A     2 A     3 A     4 A     5 A     6 A     7 A     8 A                  
-11.321 -11.297 -11.291 -11.290 -11.275 -11.251  -1.439  -1.415
  9 A    10 A    11 A    12 A    13 A    14 A    15 A    16 A                  
 -1.403  -1.383  -1.357  -1.154  -1.076  -0.996  -0.970  -0.943
 17 A    18 A    19 A    20 A    21 A    22 A    23 A    24 A                  
 -0.913  -0.835  -0.812  -0.745  -0.712  -0.709  -0.705  -0.668
 25 A    26 A    27 A    28 A    29 A    30 A    31 A    32 A                  
 -0.658  -0.646  -0.635  -0.629  -0.614  -0.604  -0.591  -0.588
 33 A    34 A    35 A    36 A    37 A    38 A    39 A    40 A                  
 -0.571  -0.558  -0.557  -0.544  -0.536  -0.521  -0.512  -0.511
 41 A    42 A    43 A    44 A    45 A    46 A    47 A    48 A                  
 -0.472  -0.442  -0.435  -0.396  -0.347
 49 A    50 A    51 A    52 A    53 A                                          
 -- Virtual --                   
  0.000   0.001   0.001   0.001   0.002   0.002   0.003   0.003
 54 A    55 A    56 A    57 A    58 A    59 A    60 A    61 A                  
  0.003   0.004   0.004   0.005   0.006   0.006   0.006   0.007
 62 A    63 A    64 A    65 A    66 A    67 A    68 A    69 A                  
  0.007   0.008   0.008   0.008   0.009   0.010   0.010   0.011
 70 A    71 A    72 A    73 A    74 A    75 A    76 A    77 A                  
  0.011   0.011   0.012   0.013   0.013   0.014   0.014   0.016
 78 A    79 A    80 A    81 A    82 A    83 A    84 A    85 A                  
  0.016   0.017   0.018   0.019   0.019   0.020   0.021   0.021
 86 A    87 A    88 A    89 A    90 A    91 A    92 A    93 A                  
  0.022   0.022   0.023   0.023   0.023   0.024   0.024   0.025
 94 A    95 A    96 A    97 A    98 A    99 A   100 A   101 A                  
  0.025   0.025   0.026   0.026   0.027   0.027   0.028   0.028
102 A   103 A   104 A   105 A   106 A   107 A   108 A   109 A                  
  0.029   0.030   0.030   0.033   0.034   0.036   0.038   0.038
110 A   111 A   112 A   113 A   114 A   115 A   116 A   117 A                  
  0.040   0.040   0.041   0.041   0.043   0.043   0.043   0.045
118 A   119 A   120 A   121 A   122 A   123 A   124 A   125 A                  
  0.045   0.047   0.047   0.048   0.049   0.049   0.050   0.052
126 A   127 A   128 A   129 A   130 A   131 A   132 A   133 A                  
  0.052   0.053   0.054   0.055   0.056   0.058   0.058   0.059
134 A   135 A   136 A   137 A   138 A   139 A   140 A   141 A                  
  0.059   0.061   0.062   0.062   0.063   0.063   0.064   0.065
142 A   143 A   144 A   145 A   146 A   147 A   148 A   149 A                  
  0.066   0.067   0.069   0.070   0.070   0.072   0.074   0.075
150 A   151 A   152 A   153 A   154 A   155 A   156 A   157 A                  
  0.078   0.079   0.080   0.082   0.084   0.085   0.088   0.088
158 A   159 A   160 A   161 A   162 A   163 A   164 A   165 A                  
  0.089   0.090   0.092   0.093   0.094   0.094   0.098   0.101
166 A   167 A   168 A   169 A   170 A   171 A   172 A   173 A                  
  0.103   0.103   0.105   0.107   0.108   0.109   0.112   0.113
174 A   175 A   176 A   177 A   178 A   179 A   180 A   181 A                  
  0.115   0.115   0.117   0.118   0.120   0.122   0.124   0.126
182 A   183 A   184 A   185 A   186 A   187 A   188 A   189 A                  
  0.127   0.129   0.130   0.131   0.132   0.132   0.132   0.135
190 A   191 A   192 A   193 A   194 A   195 A   196 A   197 A                  
  0.136   0.137   0.139   0.140   0.144   0.147   0.148   0.150
198 A   199 A   200 A   201 A   202 A   203 A   204 A   205 A                  
  0.152   0.153   0.155   0.156   0.161   0.162   0.163   0.167
206 A   207 A   208 A   209 A   210 A   211 A   212 A   213 A                  
  0.169   0.174   0.176   0.177   0.179   0.181   0.181   0.186
214 A   215 A   216 A   217 A   218 A   219 A   220 A   221 A                  
  0.187   0.188   0.189   0.192   0.196   0.197   0.203   0.206
222 A   223 A   224 A   225 A   226 A   227 A   228 A   229 A                  
  0.208   0.209   0.213   0.213   0.218   0.222   0.222   0.226
230 A   231 A   232 A   233 A   234 A   235 A   236 A   237 A                  
  0.229   0.234   0.234   0.240   0.241   0.245   0.246   0.250
238 A   239 A   240 A   241 A   242 A   243 A   244 A   245 A                  
  0.255   0.258   0.265   0.269   0.274   0.275   0.277   0.279
246 A   247 A   248 A   249 A   250 A   251 A   252 A   253 A                  
  0.283   0.285   0.289   0.291   0.293   0.298   0.302   0.305
254 A   255 A   256 A   257 A   258 A   259 A   260 A   261 A                  
  0.310   0.315   0.320   0.324   0.328   0.333   0.335   0.339
262 A   263 A   264 A   265 A   266 A   267 A   268 A   269 A                  
  0.342   0.352   0.354   0.357   0.360   0.365   0.369   0.376
270 A   271 A   272 A   273 A   274 A   275 A   276 A   277 A                  
  0.378   0.382   0.385   0.386   0.386   0.393   0.394   0.396
278 A   279 A   280 A   281 A   282 A   283 A   284 A   285 A                  
  0.399   0.400   0.400   0.404   0.406   0.410   0.414   0.421
286 A   287 A   288 A   289 A   290 A   291 A   292 A   293 A                  
  0.431   0.437   0.444   0.446   0.451   0.453   0.459   0.465
294 A   295 A   296 A   297 A   298 A   299 A   300 A   301 A                  
  0.470   0.472   0.478   0.480   0.485   0.488   0.492   0.501
302 A   303 A   304 A   305 A   306 A   307 A   308 A   309 A                  
  0.508   0.511   0.515   0.523   0.525   0.529   0.533   0.536
310 A   311 A   312 A   313 A   314 A   315 A   316 A   317 A                  
  0.544   0.548   0.549   0.551   0.558   0.562   0.570   0.576
318 A   319 A   320 A   321 A   322 A   323 A   324 A   325 A                  
  0.578   0.585   0.588   0.594   0.599   0.611   0.613   0.624
326 A   327 A   328 A   329 A   330 A   331 A   332 A   333 A                  
  0.630   0.634   0.638   0.647   0.653   0.656   0.671   0.672
334 A   335 A   336 A   337 A   338 A   339 A   340 A   341 A                  
  0.677   0.682   0.682   0.683   0.692   0.698   0.707   0.708
342 A   343 A   344 A   345 A   346 A   347 A   348 A   349 A                  
  0.716   0.717   0.720   0.723   0.727   0.733   0.742   0.748
350 A   351 A   352 A   353 A   354 A   355 A   356 A   357 A                  
  0.755   0.757   0.758   0.763   0.771   0.774   0.780   0.789
358 A   359 A   360 A   361 A   362 A   363 A   364 A   365 A                  
  0.795   0.805   0.810   0.816   0.824   0.825   0.832   0.840
366 A   367 A   368 A   369 A   370 A   371 A   372 A   373 A                  
  0.848   0.858   0.861   0.874   0.891   0.893   0.896   0.903
374 A   375 A   376 A   377 A   378 A   379 A   380 A   381 A                  
  0.904   0.908   0.917   0.925   0.946   0.948   0.952   0.967
382 A   383 A   384 A   385 A   386 A   387 A   388 A   389 A                  
  0.976   0.981   0.993   1.012   1.015   1.027   1.032   1.034
390 A   391 A   392 A   393 A   394 A   395 A   396 A   397 A                  
  1.047   1.057   1.073   1.083   1.093   1.101   1.110   1.120
398 A   399 A   400 A   401 A   402 A   403 A   404 A   405 A                  
  1.129   1.141   1.146   1.156   1.158   1.166   1.167   1.175
406 A   407 A   408 A   409 A   410 A   411 A   412 A   413 A                  
  1.183   1.194   1.208   1.218   1.232   1.246   1.255   1.275
414 A   415 A   416 A   417 A   418 A   419 A   420 A   421 A                  
  1.279   1.292   1.297   1.308   1.320   1.329   1.359   1.365
422 A   423 A   424 A   425 A   426 A   427 A   428 A   429 A                  
  1.377   1.393   1.412   1.418   1.431   1.441   1.450   1.464
430 A   431 A   432 A   433 A   434 A   435 A   436 A   437 A                  
  1.470   1.479   1.490   1.502   1.510   1.528   1.538   1.554
438 A   439 A   440 A   441 A   442 A   443 A   444 A   445 A                  
  1.555   1.567   1.570   1.596   1.609   1.613   1.623   1.662
446 A   447 A   448 A   449 A   450 A   451 A   452 A   453 A                  
  1.663   1.672   1.676   1.686   1.701   1.708   1.713   1.730
454 A   455 A   456 A   457 A   458 A   459 A   460 A   461 A                  
  1.734   1.756   1.763   1.771   1.774   1.777   1.783   1.796
462 A   463 A   464 A   465 A   466 A   467 A   468 A   469 A                  
  1.799   1.814   1.824   1.845   1.857   1.869   1.888   1.898
470 A   471 A   472 A   473 A   474 A   475 A   476 A   477 A                  
  1.903   1.920   1.929   1.936   1.949   1.951   1.963   1.972
478 A   479 A   480 A   481 A   482 A   483 A   484 A   485 A                  
  1.979   1.983   1.996   1.999   2.023   2.033   2.037   2.050
486 A   487 A   488 A   489 A   490 A   491 A   492 A   493 A                  
  2.065   2.077   2.090   2.108   2.117   2.120   2.149   2.158
494 A   495 A   496 A   497 A   498 A   499 A   500 A   501 A                  
  2.160   2.169   2.186   2.199   2.210   2.215   2.232   2.246
502 A   503 A   504 A   505 A   506 A   507 A   508 A   509 A                  
  2.253   2.266   2.273   2.275   2.284   2.295   2.309   2.313
510 A   511 A   512 A   513 A   514 A   515 A   516 A   517 A                  
  2.322   2.337   2.345   2.360   2.380   2.387   2.396   2.421
518 A   519 A   520 A   521 A   522 A   523 A   524 A   525 A                  
  2.439   2.448   2.463   2.491   2.501   2.510   2.523   2.528
526 A   527 A   528 A   529 A   530 A   531 A   532 A   533 A                  
  2.543   2.548   2.578   2.583   2.609   2.630   2.655   2.666
534 A   535 A   536 A   537 A   538 A   539 A   540 A   541 A                  
  2.675   2.695   2.721   2.733   2.747   2.762   2.795   2.804
542 A   543 A   544 A   545 A   546 A   547 A   548 A   549 A                  
  2.817   2.834   2.849   2.892   2.927   2.939   2.964   2.971
550 A   551 A   552 A   553 A   554 A   555 A   556 A   557 A                  
  3.010   3.039   3.050   3.068   3.086   3.131   3.145   3.165
558 A   559 A   560 A   561 A   562 A   563 A   564 A   565 A                  
  3.196   3.326   3.351   3.409   3.440   3.482   3.543   3.658
566 A   567 A   568 A   569 A   570 A   571 A   572 A   573 A                  
  3.699   3.701   3.710   3.715   3.766   3.814   3.821   3.836
574 A   575 A   576 A   577 A   578 A   579 A   580 A   581 A                  
  3.863   3.864   3.884   3.899   3.943   3.964   3.994   4.013
582 A   583 A   584 A   585 A   586 A   587 A   588 A   589 A                  
  4.028   4.045   4.077   4.090   4.119   4.165   4.189   4.192
590 A   591 A   592 A   593 A   594 A   595 A   596 A   597 A                  
  4.246   4.287   4.299   4.767
598 A   599 A   600 A   601 A                                                  

 Occupation and symmetry of molecular orbitals

 Point group: C1 (1 irreducible representation).

                           A     All 
 -------------------------------------
 All molecular orbitals:
  - Alpha                  601   601 
  - Beta                   601   601 
 -------------------------------------
 Alpha orbitals:
  - Frozen occupied        14    14  
  - Active occupied        39    39  
  - Active virtual         548   548 
  - Frozen virtual         0     0   
 -------------------------------------
 Beta orbitals:
  - Frozen occupied        14    14  
  - Active occupied        39    39  
  - Active virtual         548   548 
  - Frozen virtual         0     0   
 -------------------------------------

 Import integrals:   CPU 0.00 s  wall 0.00 s

 Import integrals:   CPU 1221.05 s  wall 36.12 s


 MP2  CPU 747.28 s  wall 27.69 s
Running a double precision version
           RI-CC2 T amplitudes will be solved using DIIS.

           Start     Size      MaxIter   EConv     TConv     
           3         7         100       1.00e-08  1.00e-07  
 ------------------------------------------------------------------------------
           Energy (a.u.)   Ediff      Tdiff       Comment
 ------------------------------------------------------------------------------
        -724.3804997262                           
     1  -724.3787502365   1.75e-03   1.54e+00     
     2  -724.4081391655   2.94e-02   7.14e-02     
     3  -724.4106401452   2.50e-03   4.91e-02     
     4  -724.4154358712   4.80e-03   1.63e-02     Switched to DIIS steps.
     5  -724.4185061961   3.07e-03   1.92e-02     
     6  -724.4188728912   3.67e-04   3.42e-03     
     7  -724.4189105295   3.76e-05   2.70e-03     
     8  -724.4189079646   2.56e-06   8.97e-04     
     9  -724.4189278354   1.99e-05   5.47e-04     
    10  -724.4189383684   1.05e-05   2.52e-04     
    11  -724.4189379172   4.51e-07   1.39e-04     
    12  -724.4189405702   2.65e-06   1.27e-04     
    13  -724.4189384092   2.16e-06   4.76e-05     
    14  -724.4189379262   4.83e-07   2.35e-05     
    15  -724.4189373632   5.63e-07   1.28e-05     
    16  -724.4189369562   4.07e-07   7.55e-06     
    17  -724.4189368275   1.29e-07   5.75e-06     
    18  -724.4189367152   1.12e-07   2.93e-06     
    19  -724.4189366827   3.25e-08   2.05e-06     
    20  -724.4189366899   7.16e-09   1.14e-06     
    21  -724.4189366860   3.95e-09   5.01e-07     
    22  -724.4189366899   3.97e-09   4.67e-07     
    23  -724.4189366901   1.36e-10   2.51e-07     
    24  -724.4189366874   2.66e-09   1.64e-07     
    25  -724.4189366872   2.01e-10   8.07e-08     
 ------------------------------------------------------------------------------
        -724.4189366872                           CC2 T converged.

End of double precision
 SCF energy                 = -722.14506736
 MP2 energy                 = -724.38049973
 CC2 correlation energy    =   -2.27386932
 CC2 total energy          = -724.41893669

 CC2  T1^2 = 0.0609  T2^2 = 0.7742  Leading amplitudes:

 Amplitude    Orbitals with energies
  0.0442       44 (A) A                  ->    71 (A) A                   
              -0.5436                          0.0080                     
  0.0442       44 (A) B                  ->    71 (A) B                   
              -0.5436                          0.0080                     
 -0.0311       44 (A) A                  ->    72 (A) A                   
              -0.5436                          0.0081                     
 -0.0311       44 (A) B                  ->    72 (A) B                   
              -0.5436                          0.0081                     

 Amplitude    Orbitals with energies
 -0.0360       52 (A) A      52 (A) B    ->    71 (A) A      71 (A) B     
              -0.3963       -0.3963            0.0080        0.0080       
  0.0360       52 (A) A      52 (A) B    ->    71 (A) B      71 (A) A     
              -0.3963       -0.3963            0.0080        0.0080       
  0.0360       52 (A) B      52 (A) A    ->    71 (A) A      71 (A) B     
              -0.3963       -0.3963            0.0080        0.0080       
 -0.0360       52 (A) B      52 (A) A    ->    71 (A) B      71 (A) A     
              -0.3963       -0.3963            0.0080        0.0080       

 Computing CC2 intermediates for later calculations in double precision
 Finished.


 CC2  CPU 38333.41 s  wall 1244.56 s
        Solving for EOMEA-CC2/MP2 A transitions.

Running a double precision version
      RI-EOMEA-CC2/MP2 right amplitudes will be solved using Davidson.
        Amplitudes will be solved using standard  algorithm.
     Hard-coded thresholds: 
     LinDepThresh=1.00e-15  NormThresh=1.00e-06  ReorthogonThresh=1.00e-02

      Roots     MaxVec    MaxIter   Precond   Conv      Shift    
      2         120       60        1         1.00e-08  0.00e+00  
 ------------------------------------------------------------------------------
      Iter ConvRoots NVecs ResNorm^2 Current eigenvalues (eV)
 ------------------------------------------------------------------------------
      0    0      2     2.22e-04   0.0039   0.0328   
      1    0      4     1.32e-04   -0.0009   0.0319   
      2    0      6     2.48e-05   -0.0070   0.0314   
      3    0      8     8.33e-06   -0.0082   0.0312   
      4    0      10    1.49e-03   -0.0087   0.0265   
      5    0      12    6.50e-03   -0.9215   -0.0088   
      6    0      14    1.52e-03   -1.5704   -0.0090   
      7    0      16    1.99e-04   -1.6539   -0.0090   
      8    0      18    2.07e-05   -1.6611   -0.0090   
      9    0      20    4.78e-06   -1.6621   -0.0090   
      10   1      22    4.19e-07   -1.6622   -0.0090*  
      11   1      23    2.65e-07   -1.6623   -0.0090*  
      12   1      24    2.57e-08   -1.6623   -0.0090*  
      13   1      25    1.13e-08   -1.6623   -0.0090*  
      14   2      26    1.69e-09   -1.6622*  -0.0090*  

     Davidson procedure converged

 EOMEA transition 1/A
 Total energy = -724.48002320 a.u.  Excitation energy = -1.6622 eV.
 R1^2 = 0.9070  R2^2 = 0.0930  Res^2 = 1.74e-09
 Conv-d = yes

 Amplitude    Transitions between orbitals
  0.6953       infty       ->    71 (A) B                   
 -0.4872       infty       ->    72 (A) B                   
 -0.3385       infty       ->    73 (A) B                   
 -0.1401       infty       ->    74 (A) B                   
 -0.1126       infty       ->    75 (A) B                   

              Summary of significant orbitals:

               Number  Type             Irrep      Energy
               71      Vir  Beta       71 (A)      0.0080
               72      Vir  Beta       72 (A)      0.0081
               73      Vir  Beta       73 (A)      0.0084
               74      Vir  Beta       74 (A)      0.0091
               75      Vir  Beta       75 (A)      0.0095


 EOMEA transition 2/A
 Total energy = -724.41926908 a.u.  Excitation energy = -0.0090 eV.
 R1^2 = 0.9991  R2^2 = 0.0009  Res^2 = 1.65e-09
 Conv-d = yes

 Amplitude    Transitions between orbitals
  0.9693       infty       ->    54 (A) B                   
 -0.1418       infty       ->    61 (A) B                   
  0.0911       infty       ->    59 (A) B                   
 -0.0686       infty       ->    68 (A) B                   

              Summary of significant orbitals:

               Number  Type             Irrep      Energy
               54      Vir  Beta       54 (A)      0.0001
               59      Vir  Beta       59 (A)      0.0021
               61      Vir  Beta       61 (A)      0.0027
               68      Vir  Beta       68 (A)      0.0065


Running a double precision version
      RI-EOMEA-CC2/MP2 left amplitudes will be solved using Davidson.
        Amplitudes will be solved using MOM  algorithm.
     Hard-coded thresholds: 
     LinDepThresh=1.00e-15  NormThresh=1.00e-06  ReorthogonThresh=1.00e-02

      Roots     MaxVec    MaxIter   Precond   Conv      Shift    
      2         120       60        1         1.00e-08  0.00e+00  
 ------------------------------------------------------------------------------
      Iter ConvRoots NVecs ResNorm^2 Current eigenvalues (eV)
 ------------------------------------------------------------------------------
      0    0      2     4.80e-03   -1.6622   -0.0090   
      1    0      4     1.99e-03   -1.6622   -0.0090   
      2    0      6     7.83e-05   -1.6622   -0.0090   
      3    0      8     6.96e-06   -1.6622   -0.0090   
      4    0      10    1.73e-06   -1.6622   -0.0090   
      5    1      12    1.27e-07   -1.6622   -0.0090*  
      6    1      13    1.27e-07   -1.6622   -0.0090*  
      7    1      14    1.28e-08   -1.6622   -0.0090*  
      8    2      15    4.79e-09   -1.6622*  -0.0090*  

     Davidson procedure converged

 Excited state properties for  EOMEA-CC2 transition 1/A
 Dipole moment (a.u.): 4.494155 (X 4.295378, Y 1.289131, Z 0.292051)
 R-squared (a.u.): 7014.863094 (XX 5343.460204, YY 1221.818747, ZZ 449.584143)
 Gauge origin (a.u.): (0.000000, 0.000000, 0.000000)
 Angular momentum (a.u.) against gauge origin: 
 (X 0.042850i, Y 0.064414i, Z -0.020682i)
 Traces of the OPDMs: Tr(AA) 53.000000, Tr(BB) 54.000000

 Excited state properties for  EOMEA-CC2 transition 2/A
 Dipole moment (a.u.): 23.041383 (X -22.842599, Y -1.607125, Z -2.556988)
 R-squared (a.u.): 8505.104585 (XX 6205.011686, YY 1539.570337, ZZ 760.522563)
 Gauge origin (a.u.): (0.000000, 0.000000, 0.000000)
 Angular momentum (a.u.) against gauge origin: 
 (X 0.036551i, Y 0.067994i, Z 0.001134i)
 Traces of the OPDMs: Tr(AA) 53.000000, Tr(BB) 54.000000


 EOMEA-CC2  CPU 8098.22 s  wall 370.44 s

 Start computing the transition properties

 ------------------------------------------------------------------------------
 State A: eomea_cc2/b: 1/A
 State B: cc2: 0/A

       ***    Dyson orbital calculation   *** 

 EOM-EA-CC2 state  1/A -- Reference  transition
 Energy difference = -1.6622 eV.

 Left Dyson orbital norm is 0.9588

Left beta Dyson orbital in the MO basis (canonical Q-Chem's ordering):
0  5.7492e-16  
1  6.7244e-16  
2  7.9442e-16  
3  -1.3632e-14 
4  -3.0870e-16 
5  1.2914e-15  
6  2.3867e-15  
7  -3.6315e-15 
8  1.5007e-15  
9  4.6372e-16  
10 2.2627e-15  
11 -2.0100e-16 
12 -1.5412e-15 
13 -2.0849e-15 
14 -2.2158e-05 
15 -1.0102e-03 
16 7.5247e-04  
17 1.1840e-03  
18 -4.8406e-07 
19 6.9607e-04  
20 4.4795e-04  
21 1.2918e-04  
22 1.5879e-03  
23 2.2207e-04  
24 2.0835e-03  
25 2.6958e-03  
26 1.4800e-04  
27 3.1648e-03  
28 4.9391e-08  
29 3.4935e-04  
30 4.3601e-03  
31 -2.1713e-02 
32 3.2853e-03  
33 -1.6205e-03 
34 2.1218e-02  
35 -2.2236e-02 
36 -9.6154e-03 
37 -2.5717e-02 
38 1.9556e-06  
39 1.6563e-04  
40 3.3363e-03  
41 4.3517e-03  
42 -7.7060e-04 
43 -6.6789e-02 
44 -4.5524e-02 
45 7.3368e-03  
46 2.0911e-02  
47 -3.6995e-07 
48 1.2537e-02  
49 9.9290e-03  
50 -1.3981e-02 
51 1.0940e-02  
52 1.2383e-02  
53 3.7744e-04  
54 2.3138e-03  
55 -6.0925e-03 
56 -7.3871e-03 
57 -2.9535e-03 
58 -1.6438e-03 
59 -1.9974e-03 
60 5.6572e-03  
61 6.1629e-03  
62 -5.1527e-03 
63 2.7482e-02  
64 4.7051e-02  
65 -9.8531e-03 
66 1.7426e-02  
67 4.4146e-02  
68 -7.2599e-02 
69 4.0217e-02  
70 7.2702e-01  
71 -5.0943e-01 
72 -3.5387e-01 
73 -1.4632e-01 
74 -1.1772e-01 
75 -3.2195e-02 
76 9.1037e-02  
77 3.6136e-03  
78 -6.2636e-02 
79 3.6816e-02  
80 8.2268e-03  
81 2.5414e-02  
82 3.0721e-02  
83 -1.6699e-02 
84 -1.3312e-02 
85 6.4963e-03  
86 -2.3915e-03 
87 1.0410e-02  
88 -2.4725e-02 
89 3.7992e-03  
90 2.3172e-02  
91 -3.8816e-02 
92 3.0818e-02  
93 9.0061e-03  
94 5.8431e-03  
95 3.8781e-03  
96 -6.8180e-03 
97 -2.7154e-04 
98 1.0662e-02  
99 7.0899e-03  
100-8.1971e-03 
101-1.2823e-03 
102-1.2138e-02 
1031.8221e-02  
1049.6877e-03  
105-8.9695e-03 
1065.0227e-03  
1071.0220e-02  
1087.8930e-03  
1091.2324e-02  
110-5.0645e-03 
1115.1155e-03  
112-2.0578e-03 
113-3.6540e-03 
114-1.1223e-02 
115-1.3016e-02 
1166.8677e-04  
1172.9142e-02  
118-2.0932e-04 
1191.3427e-03  
1203.7529e-03  
1215.4412e-04  
1223.8568e-03  
1233.4570e-03  
1245.1292e-03  
1253.6996e-03  
1261.7893e-02  
127-2.1283e-03 
1285.8620e-03  
1299.5398e-03  
1302.2394e-03  
1316.1690e-03  
1322.8521e-03  
1331.8589e-03  
1347.7597e-03  
1351.2808e-03  
136-1.4468e-02 
137-4.4075e-03 
1381.1748e-03  
1391.0526e-04  
1402.6015e-03  
1413.4192e-03  
1422.6927e-03  
1433.5285e-03  
144-1.2154e-04 
1451.0909e-02  
1463.6310e-03  
1476.8412e-03  
1483.7027e-03  
1491.2210e-03  
1502.2461e-04  
1514.1738e-03  
1521.2891e-02  
153-1.5718e-03 
1542.3740e-03  
155-2.8016e-03 
156-4.8247e-04 
157-4.1659e-03 
1586.9697e-04  
159-5.7369e-03 
1604.8793e-03  
161-1.4049e-02 
1621.4790e-03  
163-2.7421e-03 
1643.4285e-03  
165-5.5302e-03 
1665.5858e-03  
167-4.6997e-03 
168-6.9659e-03 
169-8.8610e-04 
1705.9648e-04  
171-4.2687e-03 
1726.0786e-04  
1735.2669e-03  
1748.6148e-04  
175-8.7780e-04 
1767.0687e-03  
177-6.2000e-03 
1783.1099e-03  
1796.2756e-03  
180-2.0969e-04 
181-3.2445e-03 
1824.0271e-04  
1833.5311e-04  
1845.8479e-03  
1851.5169e-03  
1861.7282e-03  
187-6.1414e-03 
1888.2283e-05  
1891.9018e-04  
190-2.6528e-03 
1918.2204e-03  
192-1.4647e-03 
1931.3463e-04  
1941.0147e-03  
195-6.9453e-03 
196-3.8635e-03 
197-3.7782e-03 
198-4.8816e-03 
199-5.0647e-03 
2006.7781e-04  
201-5.5294e-03 
2021.5036e-02  
2031.9554e-03  
2042.2047e-03  
2051.1693e-03  
206-3.7610e-03 
2074.1379e-03  
208-3.3898e-05 
2093.7171e-03  
2101.2170e-02  
2113.3701e-03  
2121.2694e-02  
213-8.6249e-04 
214-8.1447e-03 
2152.5308e-03  
216-3.7722e-03 
2171.9117e-03  
218-2.5849e-03 
2191.0490e-04  
220-2.3117e-03 
221-4.2812e-03 
222-5.1691e-04 
223-3.8972e-04 
2242.2008e-03  
2252.5087e-03  
226-1.7721e-03 
227-2.2510e-03 
228-1.5281e-03 
2297.5612e-03  
2307.8800e-04  
231-5.4545e-04 
232-5.8299e-03 
2332.9695e-03  
2341.9280e-03  
235-5.9232e-03 
2363.2640e-03  
237-1.4917e-03 
238-1.7983e-03 
239-1.0072e-03 
2401.0055e-03  
241-6.5691e-04 
2427.3961e-03  
243-4.3209e-03 
2444.7860e-03  
245-3.4065e-03 
2465.5569e-03  
247-2.1198e-04 
248-6.6864e-03 
249-7.3669e-03 
250-1.5816e-03 
251-1.8065e-03 
2521.0750e-02  
2531.1618e-02  
254-1.3561e-02 
255-7.1207e-03 
2561.9704e-03  
2579.7793e-03  
2586.0531e-03  
259-7.5254e-03 
260-2.2101e-02 
2611.0484e-02  
262-1.5222e-03 
2631.8865e-03  
264-1.0254e-03 
2651.0213e-02  
2666.5075e-03  
2675.3350e-03  
268-1.1499e-03 
269-3.2817e-03 
270-1.7223e-03 
271-1.4479e-04 
272-7.5518e-04 
2734.2644e-03  
2742.3875e-03  
2756.9693e-04  
276-8.2127e-03 
277-7.3639e-05 
2788.8702e-04  
2792.1141e-04  
2803.7279e-03  
281-7.2292e-03 
282-2.6538e-03 
2832.7622e-03  
2841.3631e-03  
285-1.6514e-03 
286-1.7030e-03 
2873.0667e-04  
2887.2360e-04  
2891.1413e-03  
290-4.4249e-04 
291-1.1297e-03 
292-1.3544e-03 
2934.2424e-04  
294-8.5031e-05 
2951.2172e-03  
2961.6053e-03  
297-1.1958e-03 
2985.6229e-04  
299-7.7815e-04 
3004.4677e-04  
3018.9929e-04  
302-1.3828e-03 
303-2.5919e-03 
304-7.5183e-03 
3051.1154e-04  
306-4.3131e-03 
3076.6622e-04  
308-2.8148e-03 
309-6.7947e-04 
310-3.6998e-05 
311-1.9605e-03 
3125.8956e-04  
3131.4301e-03  
314-1.3457e-03 
3156.7293e-04  
316-1.0147e-03 
3171.7459e-04  
318-1.9380e-03 
319-3.4593e-05 
3208.3220e-05  
321-1.0462e-03 
3225.9170e-04  
3236.3736e-04  
324-1.2181e-03 
325-6.7563e-04 
3268.2145e-04  
3277.4033e-05  
328-2.2625e-03 
329-5.8824e-04 
3307.9282e-04  
331-9.0094e-04 
332-6.1470e-04 
3331.0854e-03  
334-9.1903e-04 
3355.1646e-04  
3364.4593e-04  
337-1.4142e-03 
3383.6148e-04  
339-1.0017e-03 
340-1.8069e-03 
3419.9858e-04  
342-4.1322e-04 
3432.3454e-03  
344-1.6696e-04 
345-2.0760e-04 
3461.3481e-03  
347-1.1228e-03 
348-1.6523e-03 
349-5.1900e-04 
350-3.3657e-04 
351-2.6562e-04 
3529.2105e-04  
353-3.3319e-03 
354-2.5740e-03 
355-9.2180e-05 
3569.7716e-04  
3573.3735e-03  
358-8.1934e-04 
359-5.5843e-04 
360-1.3830e-03 
361-1.4836e-03 
362-1.6408e-04 
363-9.7729e-04 
364-6.1342e-04 
365-5.9356e-04 
3661.3657e-03  
3671.0830e-03  
368-3.5057e-04 
3691.8470e-03  
370-1.0742e-03 
3718.5722e-04  
3722.4032e-03  
373-1.1259e-04 
3747.9579e-05  
375-3.3534e-04 
376-1.4117e-03 
377-1.2174e-03 
378-1.0595e-03 
3793.4209e-03  
380-6.8668e-04 
381-1.6778e-03 
3826.3248e-04  
3833.6562e-03  
384-1.0020e-02 
3852.8449e-03  
3867.5270e-03  
3872.9235e-03  
3889.8726e-03  
389-2.1330e-03 
3904.9941e-03  
3918.0541e-03  
392-1.1212e-03 
393-4.3668e-03 
3943.2578e-03  
3956.1656e-03  
396-1.0887e-03 
397-3.1334e-03 
398-8.7169e-05 
3991.5336e-03  
400-2.4222e-03 
4013.5753e-03  
4023.3867e-03  
4031.0884e-03  
4041.0626e-03  
405-1.2295e-03 
4061.7555e-03  
4079.7540e-06  
4081.1380e-03  
4096.1079e-04  
4108.1880e-04  
4111.2706e-03  
412-8.6491e-04 
4133.3735e-03  
4149.4109e-04  
4156.7424e-04  
4161.0639e-04  
4171.5813e-03  
4183.5201e-04  
4195.0475e-04  
4201.8674e-04  
421-9.6287e-04 
422-1.3052e-03 
423-1.9110e-03 
424-4.1333e-05 
4251.6855e-03  
4263.5869e-03  
427-5.5375e-04 
4282.5456e-03  
4291.2780e-03  
4302.0589e-03  
431-4.5047e-04 
432-1.3084e-04 
433-4.6659e-04 
4341.0318e-03  
4359.6787e-05  
436-6.9631e-05 
437-4.0128e-04 
4386.6876e-06  
4392.8787e-04  
4401.3654e-04  
4419.8132e-05  
442-2.9902e-04 
4434.3937e-04  
444-1.1652e-04 
4453.6693e-04  
446-9.5172e-04 
447-2.0776e-04 
448-3.7594e-04 
4492.7262e-05  
450-2.1888e-04 
451-5.4859e-05 
452-5.8791e-04 
453-3.5370e-05 
454-3.0020e-04 
4556.4025e-04  
456-7.7463e-04 
4571.3773e-04  
458-4.2468e-04 
4593.4641e-04  
4608.8422e-04  
4619.7752e-04  
462-2.5854e-04 
4632.1213e-04  
464-1.7398e-03 
4651.0785e-03  
4666.8846e-04  
4672.5380e-03  
468-5.1767e-05 
4691.0203e-03  
4701.2404e-04  
471-1.4886e-03 
4727.8750e-04  
4732.7614e-04  
4742.8798e-03  
4758.8321e-04  
476-9.9800e-04 
4778.9903e-04  
4785.5325e-04  
479-1.0972e-03 
480-1.1105e-03 
4816.1920e-04  
482-5.1042e-04 
483-2.0358e-03 
484-1.5063e-03 
485-2.3461e-04 
486-1.7949e-04 
487-5.1139e-04 
4883.2247e-06  
4899.8597e-04  
490-1.7370e-04 
491-2.2774e-03 
492-1.1261e-03 
4934.4374e-04  
4946.0352e-05  
4952.7638e-04  
4968.7285e-04  
497-3.0333e-05 
498-1.8912e-05 
499-2.6733e-04 
5001.4274e-04  
501-3.3914e-04 
502-5.4787e-04 
503-3.5514e-04 
504-6.1823e-04 
505-9.4770e-04 
5066.0182e-04  
507-3.2678e-04 
5081.1263e-04  
509-5.9371e-04 
5103.9739e-04  
511-8.5081e-05 
5127.0297e-04  
513-4.6020e-04 
514-5.8226e-04 
515-2.3405e-04 
516-5.9038e-04 
517-2.8814e-04 
518-4.5738e-04 
519-6.6992e-06 
520-1.5279e-04 
5211.2957e-04  
5229.4286e-05  
5233.6563e-04  
5243.8414e-04  
5251.2139e-04  
5261.2812e-05  
527-2.9246e-04 
528-1.2591e-06 
529-3.6262e-04 
530-1.5056e-04 
5313.7029e-04  
532-2.1540e-04 
533-5.7501e-05 
534-1.9949e-04 
5351.3197e-04  
536-2.7465e-05 
537-2.0167e-05 
5381.4042e-04  
5391.0758e-05  
540-2.3223e-04 
541-7.3475e-05 
5423.6138e-04  
5437.9197e-05  
544-1.6850e-04 
545-1.9686e-04 
5463.4660e-04  
547-8.2508e-05 
548-1.3577e-06 
5496.5430e-05  
5501.5418e-05  
551-3.8278e-05 
5522.2742e-04  
5537.4121e-05  
554-1.5078e-05 
555-6.2335e-05 
556-2.0329e-04 
5572.3514e-04  
558-9.4816e-05 
5593.4694e-05  
5601.8826e-05  
561-3.8588e-05 
562-1.0374e-05 
563-5.2685e-05 
5642.7685e-06  
5651.4319e-04  
566-5.5084e-05 
5671.4076e-05  
568-9.5764e-05 
5691.1212e-04  
5701.1479e-04  
571-1.7282e-05 
572-1.8210e-04 
573-5.9973e-07 
5748.6036e-07  
5752.0850e-04  
5765.4237e-05  
5776.2727e-05  
5786.9923e-05  
5793.1110e-05  
580-6.1666e-05 
581-1.2340e-04 
582-1.3740e-04 
5836.0660e-05  
584-4.3111e-06 
5854.5956e-07  
586-1.2096e-04 
587-1.1797e-04 
588-1.6962e-06 
5894.3191e-05  
590-1.2006e-04 
5912.3621e-04  
5921.2904e-04  
5935.3151e-05  
5943.9462e-05  
5951.1630e-05  
596-2.5903e-05 
5971.1924e-04  
5984.5476e-05  
5997.1612e-08  
600-1.8034e-05 

Decomposition over AOs for the left beta Dyson orbital:
-6.10849574e-05
3.10629730e-03
-5.30658665e-02
1.39142195e-01
-4.95017902e-02
-1.03081707e-02
4.34978351e-02
-3.56252630e-02
1.38315253e-02
-1.79314863e-01
1.02564335e-01
4.85176978e-02
2.02413524e-01
1.76316097e-03
3.42831081e-02
5.22910863e-03
6.84871539e-02
2.23990332e-02
1.43894607e-01
1.59931618e-01
1.97362526e-02
-8.09509486e-02
1.06549419e-01
-1.01550516e-02
1.64488186e-01
1.38074691e-01
-1.09033159e-01
-4.56352684e-02
-6.78406918e-03
-1.52298228e-02
-6.13742263e-03
1.03787630e-02
1.37613547e-02
1.77230218e-02
-7.59274155e-03
-8.85307893e-03
7.92902185e-03
1.06639714e-02
-7.07141446e-04
-1.38998304e-02
9.78458614e-03
9.86881838e-02
1.80536181e-02
-9.50729515e-03
3.90886894e-02
-2.72059187e-02
-3.25638063e-02
2.68087298e-01
2.24704145e-01
5.57966490e-02
2.99815666e-01
2.99393281e-02
6.23871612e-02
5.32385652e-02
1.47178322e-02
-1.73436449e-02
1.47524946e-01
-1.79585582e-01
6.18675137e-02
-1.94736720e-01
3.26014131e-01
1.80187513e-02
3.63558572e-01
-1.61514911e-01
1.09110572e-01
1.21742432e-01
-4.37210629e-03
4.83761133e-03
3.11811792e-02
-1.34705488e-02
-1.60198281e-02
-1.71558534e-02
1.06175563e-02
3.24295924e-02
-1.02303406e-02
-2.45266095e-02
-1.38103024e-04
2.86130104e-03
-1.07101303e-02
-1.27567395e-01
8.60797561e-02
3.76731804e-02
1.64925367e-02
4.41852062e-02
3.02544291e-02
1.13014136e-02
1.31174936e-01
5.58907025e-02
2.28495729e-01
5.86110660e-02
1.64899526e-02
9.42744920e-03
1.44190060e-02
-1.62799137e-03
1.37183661e-01
-1.30280759e-02
2.51934686e-02
8.41122637e-02
-3.48478161e-02
-1.30144169e-01
-1.38454168e-01
7.20672390e-02
-9.00215992e-02
-8.04811487e-02
1.11120227e-02
8.33770083e-03
-1.80856744e-02
6.90828024e-03
6.99120138e-03
-6.47581486e-04
-2.03194067e-02
-3.99100843e-03
1.20869671e-02
-8.46931879e-04
-1.74725277e-04
4.13596641e-03
1.52807762e-02
1.14144828e-01
-1.40569441e-02
2.05239546e-02
-1.07370125e-03
8.25401682e-02
-3.98018557e-03
-7.15034675e-02
-1.41460884e-01
-5.51304883e-02
-2.47651091e-01
2.71287631e-02
-2.06197652e-02
-4.59611042e-02
-8.61959939e-02
2.95818460e-02
-1.18380712e-01
-1.35949651e-01
8.52010663e-02
-4.13330246e-02
1.68774878e-01
1.01492580e-01
1.79833475e-01
1.11740757e-01
-1.12015170e-01
1.22207979e-01
-2.59053806e-03
-9.62548475e-03
-1.03293091e-02
9.75336088e-03
1.09411734e-02
1.70354269e-02
6.15673620e-03
3.83553744e-04
-6.85978943e-03
2.77993926e-03
-7.85523449e-05
-4.14168235e-03
3.34623876e-03
-9.37059434e-03
-6.99582906e-02
-4.15729135e-02
1.22838718e-03
2.73759695e-02
-3.30888787e-02
1.89185873e-01
-1.63240428e-01
-6.28809509e-02
-2.36420373e-01
-2.91874610e-02
-4.80473011e-02
-2.90474059e-02
-8.74928605e-02
7.37334774e-02
-2.86871750e-02
2.25459401e-01
5.82464443e-02
1.97792882e-01
-3.11349563e-01
-2.02254225e-01
-4.99114896e-01
-1.49424271e-01
1.04314772e-02
-1.97425731e-01
-4.36764638e-03
6.34692922e-03
2.78081917e-02
-1.56226832e-02
-1.62486540e-02
-1.28301998e-02
1.96433359e-02
2.25410402e-02
-1.25555471e-02
-2.79503472e-02
-9.48817068e-05
1.33288584e-02
4.00693026e-02
-5.37350502e-02
-2.04700328e-02
-3.93554701e-02
3.65201666e-02
-9.12826941e-02
3.58865305e-02
-1.68055096e-01
-1.15551899e-01
-3.95903677e-02
-2.19078524e-01
2.25607078e-03
-3.98831468e-02
-1.64947616e-02
-1.35104098e-01
6.58567054e-02
-1.61571128e-01
-1.65666279e-01
5.96209241e-02
-1.75606435e-02
-3.70757134e-02
4.95908521e-02
-6.21850714e-02
-6.29943541e-03
7.86643385e-02
8.59367743e-02
8.37897714e-03
8.41037019e-03
-1.32071669e-02
4.67070086e-03
5.79548701e-03
1.27484376e-02
-1.38333926e-02
-1.20772986e-02
7.07700046e-03
9.04381845e-03
1.01433574e-04
3.54595144e-03
2.85092466e-03
4.00315596e-03
4.89210535e-02
-4.19765459e-04
5.95333156e-02
-1.07807898e-01
-1.32550184e-01
-8.37732511e-02
-2.48745714e-01
-6.91762717e-02
-3.35768363e-01
-2.60500245e-02
-7.83089023e-03
-3.76681927e-02
-1.06052897e-01
-2.99022590e-02
-1.43048968e-01
2.97751053e-02
1.42223984e-02
4.28220307e-02
-4.67031025e-02
-7.91337366e-02
-7.98258970e-03
9.81987756e-03
1.60342398e-01
-2.32703199e-01
-2.35850228e-04
1.79926544e-04
1.21636038e-03
-5.07610202e-04
-5.95709137e-04
-2.65749142e-05
-7.19432796e-04
-1.55011848e-04
9.70954016e-04
3.72791065e-05
1.22718690e-04
-5.49957362e-03
-9.17967688e-03
1.11515782e-02
8.71037282e-02
9.39239652e-02
7.76326590e-03
-4.82978390e-02
9.14924004e-02
-8.65347065e-02
-7.81946092e-03
-1.32958640e-02
-2.09260251e-02
4.57309062e-03
-2.82802781e-03
3.11540932e-03
-8.39430736e-04
1.30747769e-02
-1.04762569e-02
-1.36851514e-02
3.28667629e-02
1.68631684e-02
-6.34893857e-02
-4.04476653e-02
-1.33767763e-01
4.18685725e-02
9.92998278e-03
-1.31553960e-02
2.70405070e-03
8.28610278e-03
4.33284486e-03
-5.42663229e-03
-5.90967712e-03
-1.55746490e-03
-3.84188826e-03
-4.73148790e-03
3.89483084e-03
5.73079845e-03
1.56669623e-04
2.53231761e-03
-5.56675433e-04
7.31598171e-04
-6.15370851e-02
-1.73810795e-02
-2.81955995e-03
9.08026138e-05
1.54571401e-02
-6.84934352e-02
2.21839137e-01
7.71972026e-02
3.19875130e-01
1.88006181e-02
6.84529273e-03
3.12384773e-02
8.71949398e-02
2.36763036e-02
1.21433446e-01
-4.13789799e-02
-1.56522316e-02
-3.76058635e-02
3.10820627e-03
1.57718220e-02
2.35239756e-02
1.20419523e-01
-1.86623101e-02
1.42885634e-01
6.49996676e-05
2.80908919e-04
-9.76813446e-06
-1.41684467e-04
-7.08249032e-07
2.10267644e-04
-3.98205564e-04
-8.33713692e-04
1.60506919e-03
5.33560218e-04
-1.56954668e-04
-3.50242244e-02
-1.15624883e-02
-7.66016813e-02
-4.63418475e-02
7.25910424e-02
1.17571575e-02
4.53495076e-02
-2.00727596e-01
1.51428243e-01
2.91531812e-02
-1.32554976e-02
7.28454719e-02
4.56205206e-03
-9.64355119e-03
6.99106822e-03
-1.49270430e-03
7.65625178e-03
3.71704396e-02
4.81924777e-02
6.53992941e-02
4.81665057e-02
1.39060141e-02
-5.33489380e-02
-2.11983602e-02
3.32299379e-03
1.14274965e-01
3.77976213e-01
1.53434467e-03
4.28585411e-03
7.13158986e-04
6.39887094e-06
-1.97143797e-03
-1.52242093e-03
1.30481312e-03
2.36651237e-03
-1.44706460e-03
-4.97672031e-04
1.18161083e-03
5.28191389e-02
1.11537097e-02
-5.82871232e-02
-8.56982706e-02
1.45011317e-01
1.73536282e-02
-2.76250258e-02
-2.11487894e-02
1.26700269e-02
-1.25572763e-02
-4.82743902e-02
-4.98036537e-02
5.47253601e-04
-1.21307145e-02
-2.16886118e-02
2.29204090e-02
-7.30545227e-03
-1.62350099e-02
-2.71476904e-02
4.48315250e-02
4.74019320e-02
1.21420311e-01
-4.11527677e-02
-8.91271657e-02
6.88213963e-02
-1.61669362e-02
-1.07591069e-01
2.90785875e-03
3.06788259e-03
-1.58378298e-04
7.62655225e-06
-2.67624762e-04
-1.16533027e-03
1.22652264e-03
-2.76917063e-03
-8.53081324e-04
-7.46365371e-03
8.75050662e-06
4.11076607e-03
-3.48964490e-03
-3.72419334e-03
-9.22998894e-02
8.35695260e-02
-4.86232475e-02
-1.40612637e-02
2.34040560e-01
-8.34730255e-02
-4.80904519e-02
-2.18417301e-02
-1.33012587e-01
-7.66176784e-03
-3.43185926e-03
-2.29044884e-02
-3.95221574e-02
-5.23703444e-03
-7.08032883e-02
5.53110422e-02
-5.79094701e-03
-3.36856363e-02
5.05292588e-03
5.50755852e-02
8.75083873e-02
-4.91950643e-01
-3.48405977e-01
-1.95811046e-01
-1.67948426e-03
-1.60523110e-03
1.88901891e-03
-6.05115390e-04
-3.91707815e-04
-1.15153148e-03
-1.16553702e-03
2.31689539e-03
-3.67447343e-03
-1.73644682e-03
-7.68113621e-05
-1.33235824e-02
2.51690934e-03
2.41980062e-02
4.39141497e-02
-9.76614247e-02
2.24719878e-02
4.01935304e-02
2.65235016e-02
3.45800081e-02
1.93752128e-02
6.95537636e-03
7.48951805e-03
9.37690399e-03
1.96341656e-03
8.29834242e-03
1.76025396e-02
5.50174244e-03
3.00850333e-02
-9.38089104e-03
-4.33454990e-02
-3.56934250e-02
1.58590874e-02
2.56301397e-01
8.42000603e-03
6.81471125e-02
1.08849468e-02
8.81337002e-02
1.31032896e-03
-1.71900406e-03
-9.19409729e-04
6.71878853e-03
1.01725119e-03
1.81298653e-04
-8.36217200e-04
-1.06242261e-03
3.56832095e-03
1.81851783e-03
-6.18629942e-02
-4.80035295e-02
-9.05711965e-02
1.74616572e-01
1.52205821e-01
-8.66291020e-03
-2.37548384e-04
3.39778352e-04
9.24651983e-05
7.78545818e-03
7.46564721e-03
7.16899198e-03
1.65938456e-03
2.91359309e-03
3.50561017e-02
8.13046712e-03
-1.57577062e-01
-1.99436545e-01
-3.48034779e-04
-4.09021162e-04
-1.14000255e-03
-2.53941983e-04
-2.18227385e-04
-1.94717965e-03
6.51581219e-02
5.06348275e-02
1.33382712e-01
-2.53506330e-01
-2.11338429e-01
1.60229833e-01
1.95119330e-04
-5.44332143e-04
-2.52608633e-04
1.07469006e-03
-1.34453800e-03
1.11644991e-02
-2.62667203e-02
1.27783752e-02
-6.31635055e-02
9.29667445e-02
-1.16468553e-01
3.87967134e-01
-1.27373920e-04
-4.13894331e-04
-4.42119353e-04
-6.49386863e-03
-1.27584060e-03
4.79663134e-03
6.19581854e-03
2.64591839e-03
-1.07367153e-02
-1.08715562e-01
2.61256507e-01
-1.51281723e-01
3.26830528e-04
-4.50387749e-05
6.99366674e-05
-1.32891392e-03
-9.78424801e-05
-4.56117651e-04
3.28499699e-02
-1.79656169e-02
-1.34611428e-01
2.87462226e-01
-1.24614512e-01
-4.03419448e-01
-6.42989479e-05
8.71774730e-04
1.25952958e-03
5.11549657e-03
7.40385816e-04
1.17858183e-02
-1.28588502e-02
2.65297743e-02
2.66849283e-02
-9.27327720e-02
1.25027955e-01
3.41280623e-01
-6.76463268e-04
-1.72574769e-04
-1.14708666e-03
-3.15260139e-03
6.63497168e-03
-9.02263900e-03
6.17780659e-03
8.67646442e-03
-2.69261688e-02
-1.20747897e-01
-1.06566688e-01
-6.32666742e-02
-6.43818503e-04
-8.86904650e-04
-3.92507679e-04
-2.34487110e-03
1.67681682e-03
3.23021091e-03
-1.23922444e-02
-6.96701419e-03
-1.73829379e-03
-4.32918722e-02
-8.31393951e-02
3.76341232e-02
1.21062224e-04
-1.40671650e-03
-7.18762629e-04
-3.94882036e-03
-5.71143193e-04
2.44290492e-03
-7.32741149e-03
-4.94717430e-03
3.44221646e-02
1.22464490e-02
1.56421902e-02
2.04787067e-02
-3.57435422e-03
-1.38942523e-03
-6.37260994e-03
-7.31699489e-04
-9.97289171e-04
-3.64644535e-03
7.41698363e-06
4.43974944e-05
-1.12185117e-04
-2.82333995e-03
8.61502975e-03
-2.21906991e-03
-6.06630336e-02
2.94847378e-02
4.77298144e-02
-1.08316116e-02
-1.04758936e-05
-8.86557048e-06
-3.90355155e-06
-5.12780849e-05
-8.02148756e-06
2.38204530e-05
-1.17396516e-03
1.17635854e-04
1.62245806e-04
3.27786077e-03
-1.34350346e-04
2.09640887e-04
-3.96274809e-03
1.40181044e-04
-1.49962493e-03
-6.76872367e-03
-2.72814938e-03
-1.16243741e-02
-8.48453152e-07
3.68922485e-07
5.24311383e-07
-6.48732738e-07
1.43302668e-06
2.59445583e-06
-5.68972019e-06
-8.69830592e-06
9.92316521e-06
-1.75598978e-05
-1.20390766e-05
5.00016822e-04
-7.62512499e-03
2.80529842e-02
5.67535807e-02
-3.35691513e-02
-1.72123422e-06
-4.38994899e-07
-3.31900603e-06
-3.15131756e-05
-2.93111998e-05
-7.40024726e-05
4.77581143e-06
9.06126528e-04
-5.76265978e-03
5.61177047e-03
-8.46224431e-03
-2.65996833e-02
-5.42573846e-06
1.56275222e-06
6.19464558e-06
-1.26559071e-04
-6.91193142e-06
1.49603787e-04
   *****

 Right Dyson orbital norm is 0.9588

Right beta Dyson orbital in the MO basis (canonical Q-Chem's ordering):
0  5.7492e-16  
1  6.7244e-16  
2  7.9442e-16  
3  -1.3632e-14 
4  -3.0870e-16 
5  1.2914e-15  
6  2.3867e-15  
7  -3.6315e-15 
8  1.5007e-15  
9  4.6372e-16  
10 2.2627e-15  
11 -2.0100e-16 
12 -1.5412e-15 
13 -2.0849e-15 
14 -2.2158e-05 
15 -1.0102e-03 
16 7.5247e-04  
17 1.1840e-03  
18 -4.8406e-07 
19 6.9607e-04  
20 4.4795e-04  
21 1.2918e-04  
22 1.5879e-03  
23 2.2207e-04  
24 2.0835e-03  
25 2.6958e-03  
26 1.4800e-04  
27 3.1648e-03  
28 4.9391e-08  
29 3.4935e-04  
30 4.3601e-03  
31 -2.1713e-02 
32 3.2853e-03  
33 -1.6205e-03 
34 2.1218e-02  
35 -2.2236e-02 
36 -9.6154e-03 
37 -2.5717e-02 
38 1.9556e-06  
39 1.6563e-04  
40 3.3363e-03  
41 4.3517e-03  
42 -7.7060e-04 
43 -6.6789e-02 
44 -4.5524e-02 
45 7.3368e-03  
46 2.0911e-02  
47 -3.6995e-07 
48 1.2537e-02  
49 9.9290e-03  
50 -1.3981e-02 
51 1.0940e-02  
52 1.2383e-02  
53 3.7744e-04  
54 2.3138e-03  
55 -6.0925e-03 
56 -7.3871e-03 
57 -2.9535e-03 
58 -1.6438e-03 
59 -1.9974e-03 
60 5.6572e-03  
61 6.1629e-03  
62 -5.1527e-03 
63 2.7482e-02  
64 4.7051e-02  
65 -9.8531e-03 
66 1.7426e-02  
67 4.4146e-02  
68 -7.2599e-02 
69 4.0217e-02  
70 7.2702e-01  
71 -5.0943e-01 
72 -3.5387e-01 
73 -1.4632e-01 
74 -1.1772e-01 
75 -3.2195e-02 
76 9.1037e-02  
77 3.6136e-03  
78 -6.2636e-02 
79 3.6816e-02  
80 8.2268e-03  
81 2.5414e-02  
82 3.0721e-02  
83 -1.6699e-02 
84 -1.3312e-02 
85 6.4963e-03  
86 -2.3915e-03 
87 1.0410e-02  
88 -2.4725e-02 
89 3.7992e-03  
90 2.3172e-02  
91 -3.8816e-02 
92 3.0818e-02  
93 9.0061e-03  
94 5.8431e-03  
95 3.8781e-03  
96 -6.8180e-03 
97 -2.7154e-04 
98 1.0662e-02  
99 7.0899e-03  
100-8.1971e-03 
101-1.2823e-03 
102-1.2138e-02 
1031.8221e-02  
1049.6877e-03  
105-8.9695e-03 
1065.0227e-03  
1071.0220e-02  
1087.8930e-03  
1091.2324e-02  
110-5.0645e-03 
1115.1155e-03  
112-2.0578e-03 
113-3.6540e-03 
114-1.1223e-02 
115-1.3016e-02 
1166.8677e-04  
1172.9142e-02  
118-2.0932e-04 
1191.3427e-03  
1203.7529e-03  
1215.4412e-04  
1223.8568e-03  
1233.4570e-03  
1245.1292e-03  
1253.6996e-03  
1261.7893e-02  
127-2.1283e-03 
1285.8620e-03  
1299.5398e-03  
1302.2394e-03  
1316.1690e-03  
1322.8521e-03  
1331.8589e-03  
1347.7597e-03  
1351.2808e-03  
136-1.4468e-02 
137-4.4075e-03 
1381.1748e-03  
1391.0526e-04  
1402.6015e-03  
1413.4192e-03  
1422.6927e-03  
1433.5285e-03  
144-1.2154e-04 
1451.0909e-02  
1463.6310e-03  
1476.8412e-03  
1483.7027e-03  
1491.2210e-03  
1502.2461e-04  
1514.1738e-03  
1521.2891e-02  
153-1.5718e-03 
1542.3740e-03  
155-2.8016e-03 
156-4.8247e-04 
157-4.1659e-03 
1586.9697e-04  
159-5.7369e-03 
1604.8793e-03  
161-1.4049e-02 
1621.4790e-03  
163-2.7421e-03 
1643.4285e-03  
165-5.5302e-03 
1665.5858e-03  
167-4.6997e-03 
168-6.9659e-03 
[...]
5561.1702e-06  
5571.0830e-05  
558-1.0091e-05 
559-8.1171e-06 
560-7.2243e-06 
561-9.3045e-06 
562-1.5137e-04 
5632.2962e-05  
564-2.1325e-06 
5651.0323e-05  
5666.3269e-06  
5671.1835e-05  
568-1.1966e-05 
5691.0418e-05  
570-2.1168e-05 
571-2.8134e-06 
5729.9274e-07  
5734.9361e-08  
574-2.0393e-07 
575-6.8286e-06 
5761.5213e-05  
577-2.4403e-06 
578-7.2639e-06 
5792.0731e-06  
580-9.4819e-06 
581-1.1655e-06 
5822.4344e-06  
5834.8046e-07  
584-4.1125e-06 
5858.6196e-06  
5864.2590e-06  
5878.2569e-06  
5881.5520e-05  
5896.1938e-06  
590-1.5098e-05 
591-9.6059e-06 
5923.9665e-06  
5931.9756e-05  
5946.1533e-06  
5957.7131e-06  
596-7.9297e-06 
597-4.2280e-06 
598-2.4503e-06 
599-2.0782e-07 
6001.4567e-06  

Decomposition over AOs for the right beta Dyson orbital:
2.02223461e-04
2.47183249e-03
1.25683605e-02
-1.25459464e-01
2.32955330e-01
-1.21994368e-01
-1.07606131e-01
2.14274457e+00
-3.47278162e+00
4.82799252e+00
1.25706839e-04
-2.40210483e-03
1.87616263e-03
-1.85017591e-03
1.28791881e-03
1.01406754e-04
7.52655838e-03
1.08252688e-01
-1.27883707e-02
-4.33187009e-01
1.76133214e-01
-1.59812286e-01
7.08248170e-01
4.24759467e-01
3.51413207e-01
-2.23062897e-01
2.67482842e-01
2.87102426e-01
-8.36461138e-05
-7.20611726e-04
-4.48169601e-04
-3.49896589e-04
-7.93796785e-04
-5.90518246e-03
3.40100951e-03
-7.06167843e-04
-1.48918109e-03
2.03547014e-03
2.77757115e-04
4.18413147e-03
2.23507251e-03
2.97548663e-01
3.01685436e-01
-3.54403039e-01
2.97093763e-01
1.21785670e+00
-2.96636690e+00
-2.25835563e+00
-2.57569695e-03
7.01066063e-04
6.07440415e-03
-7.62329382e-04
-8.91858213e-03
2.21898236e-03
6.86574050e-02
6.34568318e-03
-5.46141982e-02
2.36639542e-01
1.98155338e-02
8.56836523e-02
-7.82679556e-01
-6.97260409e-01
-2.60118382e-01
4.34206609e-01
-1.00409262e+00
-1.01247455e+00
-2.27089085e-04
-8.56311562e-05
-1.45532809e-04
-1.02275142e-03
2.03845563e-04
1.51976626e-03
-6.95277852e-04
9.65150708e-04
-3.75868180e-03
1.75674171e-03
1.08837020e-04
5.50835588e-04
-7.48594827e-03
1.14083636e-02
4.43756702e-01
-2.09111820e-01
4.20685351e-01
-5.10185527e-01
-1.90692502e-01
-1.70880595e-01
-3.21651573e-05
3.62779399e-03
1.80779307e-03
8.30858545e-03
-1.16449054e-02
-1.98382333e-03
-2.58718800e-01
1.95614472e-01
1.25689014e-01
-1.78747441e-01
4.72805805e-02
-5.99214175e-02
6.22766840e-01
2.14086729e-01
2.34430803e-01
7.36827478e-02
8.31802690e-01
6.28441292e-01
-2.25802297e-04
-1.61537027e-04
-7.07842878e-04
-4.57607563e-04
-2.53959599e-04
-4.30235031e-03
9.09979814e-04
-2.90072768e-03
2.69711373e-04
-2.39350602e-03
2.28528537e-04
6.48160593e-03
5.25790182e-03
-4.30589646e-02
2.16251537e-01
-1.65198031e-01
6.35356595e-01
-4.80631612e-01
3.15576089e+00
6.23426409e-01
-2.11988973e-03
-3.64806051e-03
2.59540935e-04
7.49477173e-03
-4.24679843e-03
-4.13352706e-03
-1.33639780e-01
6.63834275e-02
5.43628311e-02
1.01800794e-02
7.68846248e-02
7.80017786e-02
5.91410114e-02
-8.87079508e-02
-2.68681486e-01
-2.98392085e-01
7.03062161e-01
-4.24314399e-02
2.83211866e-04
-2.13564826e-04
-3.29037010e-04
-3.67213923e-04
-1.21583946e-04
1.12962584e-03
9.21150728e-05
5.38737875e-04
-1.51708559e-03
2.32591055e-03
9.05033665e-05
1.73346218e-04
8.30524379e-03
1.15839770e-02
-1.57786755e-01
3.50872721e-02
3.53923866e-01
4.61969238e-01
-1.59468537e+00
-2.86911743e+00
2.40759068e-03
2.44333090e-03
2.11746827e-03
-1.51657687e-04
-1.06972461e-03
3.38945433e-04
-8.71380926e-02
1.80603772e-01
2.44691810e-02
-1.65437116e-01
2.12386770e-01
-8.32206069e-02
6.48501097e-02
-2.04457899e-01
-1.16611229e-03
4.74677985e-01
-9.57764717e-01
-3.22699061e-01
1.31041677e-04
-1.41734848e-04
-4.69066259e-04
-5.24288434e-04
-7.24995383e-05
-1.49959012e-03
-3.54205160e-04
-2.21449700e-03
9.55424874e-04
-2.66473692e-03
1.76221792e-04
1.92979386e-03
-4.54098290e-03
2.41312862e-01
-4.10802919e-02
8.16953701e-02
-1.67553220e-01
2.04955497e+00
-5.15561892e+00
4.75491904e+00
9.39290337e-04
-2.77459063e-03
3.59947349e-03
-3.12182857e-03
-3.00871386e-03
2.38860776e-03
-1.70435056e-02
1.99539268e-01
-5.36738843e-02
1.34277738e-01
2.43484884e-01
1.15360143e-01
5.56118896e-02
-2.30465607e-02
-2.71284441e-01
-4.49372765e-02
8.47492311e-01
5.59787573e-01
-5.35824334e-04
-3.09914247e-04
-3.65624571e-04
-2.32634210e-04
4.00137398e-05
-6.08821634e-03
2.41775846e-03
-1.95250198e-03
1.66696124e-03
-3.34494785e-03
2.58048052e-04
7.63915054e-03
1.63977519e-03
-8.40685526e-03
-2.24561023e-01
-3.71903800e-03
5.29068831e-01
1.79984148e-01
-2.60475141e-01
4.35346490e+00
9.50812360e-04
-5.53105512e-04
-1.56755835e-03
-2.20578248e-05
-3.69607202e-05
1.53895310e-05
1.44302808e-02
-4.12469287e-03
-4.39152414e-03
4.79413758e-03
-9.40109182e-03
-2.93532729e-02
-1.73847225e-02
-7.01360401e-03
3.00537342e-02
2.09948440e-01
7.33788719e-02
5.29070210e-03
-1.34582087e-06
-1.86144609e-05
-2.79445936e-06
-6.33281627e-05
-5.69767717e-05
8.35964059e-05
-8.76216627e-05
1.19010086e-04
-1.89064940e-04
-2.58566926e-04
2.98378484e-04
1.50262439e-02
-5.76758268e-04
3.31678675e-01
2.20256578e-01
2.59705144e-01
-4.53224168e-01
-1.52618463e+00
9.87735697e-02
-1.13066904e+00
4.61441220e-03
-3.16162129e-03
8.25485582e-04
6.97119213e-03
-8.60024971e-03
-2.38176390e-03
-3.38043142e-02
8.52121322e-02
-3.15652991e-03
3.08249072e-02
-3.26040917e-02
1.61576895e-02
-1.39909949e-01
-3.51428343e-01
-6.92194568e-02
-4.40276539e-01
-6.19041862e-01
-1.37535107e-01
1.22192858e-04
-4.10228200e-05
-8.10907395e-05
-1.56353612e-04
-6.39895792e-05
1.67702365e-03
-7.27892144e-04
7.03880980e-04
1.92219886e-05
2.70962607e-04
1.12995131e-04
3.26359115e-03
1.22869234e-03
2.99496366e-03
-1.67387824e-01
6.10750355e-02
4.59879679e-01
-7.39660780e-01
8.78946439e-01
1.21564688e+00
-5.17861440e-04
-1.13860721e-03
-7.88802657e-05
-8.66510418e-05
-1.66441222e-04
1.74721532e-04
-2.90756649e-03
-5.13556687e-03
3.19716517e-03
-2.02518344e-02
-1.95280562e-02
1.45223469e-02
7.42727312e-02
-4.45210308e-02
2.24073063e-03
-9.12644246e-02
3.10664159e-01
5.77555635e-02
1.44887899e-05
-2.09442177e-05
-7.24651231e-05
-3.28709969e-05
1.77333279e-05
2.59067961e-05
-4.33887102e-05
-1.31138393e-04
1.41029590e-04
-2.34917204e-06
6.02576991e-05
1.76842859e-03
-8.00530234e-04
-2.41997135e-02
-4.45575160e-01
4.89216224e-02
4.15845111e-01
2.30643444e-01
4.05701716e-01
-2.77367600e+00
-1.60421414e-03
-2.05893009e-03
-3.78416213e-03
-2.06981415e-04
6.50255264e-04
-2.48179941e-04
-1.61313832e-02
1.85475297e-02
-1.33009692e-03
-5.04144303e-02
9.74652519e-02
4.12360236e-02
4.76542062e-02
-2.15891855e-02
1.38006487e-02
6.78286073e-02
-1.89153523e-01
-2.40358841e-01
4.00661522e-05
-1.42139424e-05
-2.57601146e-05
-2.29359490e-06
-3.65438431e-05
1.92672525e-04
1.45199721e-04
1.78752900e-05
3.78879365e-06
-1.67895818e-05
1.53071966e-04
9.40725746e-03
6.10352335e-03
2.78309353e-02
-7.67681310e-02
-3.61395842e-01
1.51670783e-01
6.51271900e-01
2.68029768e+00
-1.36985012e+00
4.38356805e-03
3.05953025e-03
4.05604394e-03
-1.69288699e-03
1.72949019e-03
1.10718432e-03
-8.60340952e-03
2.41525161e-02
1.51120295e-02
1.81888411e-02
1.03571859e-01
-1.61390129e-02
-1.72285900e-02
-6.07725134e-02
3.38468736e-02
-2.35168375e-01
-3.78507327e-02
3.93647913e-01
7.93434867e-07
-1.42908975e-04
6.21998820e-05
-1.47142706e-04
8.35181011e-05
-2.78776384e-04
-5.32498897e-04
1.01764237e-04
3.38517388e-04
1.63653361e-04
4.75696444e-05
3.18196676e-03
2.77806412e-03
2.28927156e-02
-2.46871981e-01
-9.09399246e-02
7.68035699e-01
-1.54354029e-01
-6.04825410e-01
6.15056868e+00
-5.46456342e-03
-1.02512913e-03
1.15658256e-03
-9.61100748e-05
-1.46741427e-04
7.83347095e-05
-2.89614861e-03
-4.17486744e-03
-8.36619250e-04
4.88524431e-02
5.21948036e-02
-2.48788944e-02
4.45164800e-01
5.21722425e-02
-4.29289711e-02
-1.44639768e-01
-1.81626785e-01
-4.53734284e-02
9.54827047e-05
-5.81334797e-05
-1.23222480e-04
-8.04239393e-05
8.87973614e-05
8.22909350e-05
1.48825315e-05
-1.38325947e-04
-1.42601227e-04
3.93999572e-04
3.89117958e-04
1.54813330e-02
3.52050349e-03
4.12670847e-02
4.45832657e-02
5.64383570e-01
-4.38159055e-01
-8.15686107e-01
-8.48207737e-01
-4.51280200e+00
7.77520454e-03
1.94380524e-03
2.03837671e-03
2.04839517e-04
-5.06417943e-04
-1.30195811e-03
-3.53732276e-03
-7.07375518e-03
-6.40564434e-03
7.17318827e-02
-8.32960874e-02
1.32721658e-02
9.09987329e-02
1.36813658e-01
-5.28001875e-02
1.79039820e-02
6.60003462e-01
-1.64630567e-01
-4.80800980e-05
-6.31459513e-05
-1.37362103e-04
7.45434281e-05
-1.71253977e-04
2.24800242e-04
-4.76643019e-04
6.50944564e-05
-7.05486857e-04
-3.34882241e-04
1.52185196e-03
-1.08879834e-02
-7.40907649e-03
-1.86714043e-01
8.08068087e-01
8.94204576e-01
-6.59709347e-04
-1.97016125e-04
-3.45679994e-04
4.34792744e-04
5.93729277e-04
-1.23025500e-04
1.26879579e-03
-8.10714563e-03
5.55443044e-02
-4.01229572e-01
-1.07571111e+00
9.31442174e-01
2.84278593e-04
4.16522143e-04
-2.60071776e-04
-9.16598692e-04
9.79609025e-04
2.02163867e-04
1.65241933e-04
-1.12971968e-02
3.91645326e-03
-2.43260853e-01
-9.13159603e-01
-5.12223921e-01
6.04071787e-05
3.20204560e-05
5.74470914e-04
-7.10341767e-05
6.08173800e-04
-1.13317168e-03
-9.36721517e-04
-4.56945144e-03
-7.71454521e-02
-3.12418531e-01
-3.81786576e-02
2.19818932e-01
1.60707051e-05
2.17166804e-04
5.02887822e-04
-2.53049466e-04
-8.04307319e-04
5.56429561e-04
1.96993112e-03
-2.01768897e-03
-1.85146667e-02
-2.73418464e-01
-9.60092857e-01
-7.63716312e-01
3.49930606e-05
-6.19273744e-04
6.46143153e-05
-2.36359925e-04
-1.48464528e-03
6.77535302e-04
2.11391314e-03
2.80869525e-04
-5.72272523e-02
-5.61702485e-01
5.04544118e-01
7.28728757e-02
-3.78900867e-04
2.96710665e-04
-6.59308994e-04
-1.00280762e-03
1.17341435e-03
-2.28218216e-03
1.63915450e-03
-3.98129746e-03
-5.94615658e-02
2.81428438e-01
-8.78510517e-01
-1.96374096e+00
5.02224707e-05
1.91870132e-04
-3.40298783e-04
-7.67868811e-04
6.86808064e-04
-4.77975033e-04
2.12666801e-03
-3.29912158e-04
-7.80558654e-02
-3.85124616e-01
8.17392163e-01
3.17210306e-02
-4.96228659e-04
-1.42987457e-04
1.05019714e-04
-2.07442375e-03
-3.56198392e-04
-5.95440068e-04
-6.90746090e-04
-9.50896451e-03
-1.37390450e-01
2.31618082e-01
1.23888252e-01
-7.71955835e-01
2.18574855e-04
-1.87245321e-04
7.70605428e-05
-7.50375488e-04
1.46281097e-03
2.73402687e-04
4.58031320e-03
9.58232715e-04
-5.79461826e-02
3.12671321e-01
7.93031016e-01
-8.92399489e-01
5.86397326e-05
2.92606573e-04
-2.13763487e-04
9.05307739e-04
-4.95187322e-05
-8.02929239e-04
1.09083108e-03
2.91664814e-02
5.16848167e-03
1.79371390e-02
1.06374122e-01
3.74062584e-01
-5.10322506e-02
1.78261959e+00
1.52336452e+00
-1.15437041e+00
2.33855653e-02
2.36296279e-03
2.32704699e-03
2.19930212e-03
2.40904125e-04
1.86418607e-04
9.51194814e-03
1.23447640e-03
1.25203151e-03
2.31644605e-02
1.55211128e-03
1.44783679e-03
1.85190415e-02
3.18511418e-03
4.30516790e-03
-2.30952941e-02
3.60925701e-03
2.81880507e-02
6.08337284e-05
2.16145898e-05
-1.36136591e-04
5.49896722e-05
3.28307505e-04
7.58204354e-05
-1.86830130e-04
-7.75809028e-04
1.55646381e-04
2.05724864e-04
-3.64748652e-03
-1.15559847e-02
-1.61839176e-01
-1.07825004e-01
-3.12892751e-01
-1.21387576e+00
-1.08640098e-03
-4.54632112e-04
-2.22294491e-03
-4.68005412e-03
-1.31664672e-03
-5.25752712e-03
-3.86150683e-03
-1.13020258e-02
-1.62049181e-01
-6.88307827e-02
-7.25701556e-02
-1.20458594e+00
-1.47998395e-03
2.35678260e-04
1.97361838e-03
-5.62638416e-03
2.25736784e-04
4.18441014e-03
   *****

     End transition


 All requested transition properties have been computed


 Transition Properties  CPU 36.98 s  wall 4.04 s
 Total ccman2 time:   CPU 50275.24 s  wall 1761.62 s


 --------------------------------------------------------------

                    Orbital Energies (a.u.)
 --------------------------------------------------------------

 Alpha MOs
 -- Occupied --
-20.6102 -20.5912 -20.5907 -20.5815 -20.5737 -11.3759 -11.3566 -11.3390
-11.3206 -11.2972 -11.2909 -11.2904 -11.2746 -11.2507  -1.4394  -1.4146
 -1.4029  -1.3830  -1.3566  -1.1542  -1.0757  -0.9961  -0.9697  -0.9434
 -0.9125  -0.8353  -0.8117  -0.7454  -0.7119  -0.7086  -0.7053  -0.6683
 -0.6578  -0.6459  -0.6352  -0.6295  -0.6144  -0.6041  -0.5912  -0.5878
 -0.5707  -0.5583  -0.5568  -0.5436  -0.5363  -0.5207  -0.5121  -0.5114
 -0.4717  -0.4423  -0.4353  -0.3963  -0.3474
 -- Virtual --
  0.0001   0.0012   0.0013   0.0014   0.0021   0.0021   0.0026   0.0027
  0.0030   0.0040   0.0044   0.0049   0.0058   0.0060   0.0065   0.0066
  0.0072   0.0080   0.0081   0.0084   0.0091   0.0095   0.0098   0.0106
  0.0109   0.0114   0.0123   0.0127   0.0130   0.0139   0.0144   0.0159
  0.0160   0.0171   0.0175   0.0186   0.0194   0.0199   0.0205   0.0211
  0.0216   0.0219   0.0226   0.0228   0.0233   0.0236   0.0243   0.0246
  0.0250   0.0253   0.0262   0.0265   0.0266   0.0273   0.0282   0.0285
  0.0290   0.0298   0.0301   0.0331   0.0342   0.0355   0.0376   0.0380
  0.0400   0.0401   0.0406   0.0413   0.0426   0.0428   0.0435   0.0452
  0.0455   0.0470   0.0474   0.0476   0.0487   0.0494   0.0505   0.0517
  0.0522   0.0532   0.0540   0.0546   0.0559   0.0576   0.0580   0.0586
  0.0594   0.0606   0.0616   0.0618   0.0628   0.0631   0.0637   0.0649
  0.0663   0.0668   0.0692   0.0699   0.0700   0.0722   0.0742   0.0754
  0.0775   0.0786   0.0796   0.0820   0.0836   0.0854   0.0875   0.0881
  0.0893   0.0896   0.0919   0.0927   0.0936   0.0940   0.0978   0.1007
  0.1025   0.1029   0.1050   0.1068   0.1081   0.1094   0.1124   0.1129
  0.1152   0.1154   0.1175   0.1182   0.1200   0.1223   0.1239   0.1261
  0.1273   0.1293   0.1301   0.1312   0.1317   0.1323   0.1324   0.1345
  0.1365   0.1372   0.1391   0.1402   0.1440   0.1469   0.1479   0.1500
  0.1520   0.1526   0.1548   0.1556   0.1611   0.1622   0.1635   0.1672
  0.1686   0.1742   0.1756   0.1775   0.1791   0.1813   0.1814   0.1862
  0.1874   0.1883   0.1895   0.1919   0.1959   0.1972   0.2031   0.2058
  0.2079   0.2090   0.2131   0.2135   0.2182   0.2215   0.2225   0.2265
  0.2295   0.2336   0.2338   0.2398   0.2408   0.2449   0.2459   0.2503
  0.2554   0.2577   0.2647   0.2687   0.2738   0.2747   0.2768   0.2790
  0.2829   0.2851   0.2890   0.2908   0.2933   0.2984   0.3024   0.3054
  0.3102   0.3149   0.3204   0.3237   0.3278   0.3334   0.3354   0.3391
  0.3418   0.3516   0.3544   0.3570   0.3603   0.3648   0.3689   0.3757
  0.3781   0.3818   0.3854   0.3858   0.3865   0.3929   0.3938   0.3959
  0.3995   0.4001   0.4004   0.4036   0.4058   0.4105   0.4140   0.4209
  0.4314   0.4374   0.4442   0.4465   0.4513   0.4526   0.4593   0.4651
  0.4704   0.4724   0.4779   0.4805   0.4852   0.4882   0.4923   0.5008
  0.5079   0.5112   0.5150   0.5233   0.5254   0.5285   0.5329   0.5357
  0.5442   0.5479   0.5494   0.5510   0.5580   0.5624   0.5698   0.5757
  0.5784   0.5848   0.5876   0.5935   0.5994   0.6109   0.6132   0.6241
  0.6299   0.6335   0.6384   0.6466   0.6528   0.6559   0.6707   0.6719
  0.6767   0.6815   0.6823   0.6827   0.6922   0.6979   0.7071   0.7082
  0.7164   0.7170   0.7205   0.7232   0.7266   0.7328   0.7420   0.7478
  0.7549   0.7574   0.7579   0.7625   0.7708   0.7738   0.7800   0.7886
  0.7954   0.8046   0.8097   0.8163   0.8240   0.8248   0.8317   0.8401
  0.8477   0.8576   0.8608   0.8744   0.8908   0.8926   0.8964   0.9031
  0.9038   0.9078   0.9168   0.9250   0.9455   0.9477   0.9517   0.9673
  0.9756   0.9813   0.9934   1.0116   1.0150   1.0267   1.0321   1.0335
  1.0469   1.0575   1.0728   1.0835   1.0927   1.1011   1.1095   1.1200
  1.1288   1.1406   1.1464   1.1555   1.1582   1.1660   1.1669   1.1754
  1.1834   1.1943   1.2077   1.2178   1.2322   1.2463   1.2550   1.2751
  1.2785   1.2920   1.2972   1.3081   1.3200   1.3291   1.3586   1.3652
  1.3774   1.3928   1.4116   1.4182   1.4314   1.4406   1.4500   1.4636
  1.4695   1.4792   1.4903   1.5023   1.5104   1.5276   1.5378   1.5542
  1.5552   1.5673   1.5697   1.5958   1.6094   1.6130   1.6227   1.6619
  1.6633   1.6716   1.6757   1.6857   1.7007   1.7080   1.7133   1.7301
  1.7344   1.7556   1.7634   1.7708   1.7742   1.7770   1.7830   1.7961
  1.7992   1.8141   1.8239   1.8446   1.8571   1.8686   1.8881   1.8980
  1.9027   1.9199   1.9288   1.9358   1.9486   1.9507   1.9627   1.9716
  1.9785   1.9832   1.9955   1.9989   2.0226   2.0326   2.0365   2.0505
  2.0650   2.0768   2.0899   2.1075   2.1170   2.1202   2.1494   2.1580
  2.1598   2.1689   2.1861   2.1990   2.2096   2.2151   2.2317   2.2464
  2.2532   2.2660   2.2726   2.2748   2.2843   2.2946   2.3085   2.3126
  2.3220   2.3368   2.3446   2.3604   2.3803   2.3873   2.3963   2.4213
  2.4391   2.4485   2.4632   2.4911   2.5009   2.5098   2.5232   2.5281
  2.5430   2.5477   2.5778   2.5834   2.6091   2.6304   2.6551   2.6656
  2.6749   2.6955   2.7208   2.7332   2.7467   2.7625   2.7952   2.8035
  2.8174   2.8336   2.8487   2.8916   2.9270   2.9391   2.9638   2.9712
  3.0103   3.0387   3.0504   3.0682   3.0862   3.1311   3.1445   3.1647
  3.1959   3.3259   3.3511   3.4089   3.4396   3.4825   3.5430   3.6576
  3.6985   3.7005   3.7100   3.7146   3.7657   3.8139   3.8210   3.8359
  3.8630   3.8636   3.8844   3.8988   3.9428   3.9636   3.9936   4.0134
  4.0283   4.0447   4.0773   4.0904   4.1190   4.1654   4.1892   4.1923
  4.2456   4.2867   4.2994   4.7668
 --------------------------------------------------------------

          Ground-State Mulliken Net Atomic Charges

     Atom                 Charge (a.u.)
  ----------------------------------------
      1 C                     1.419272
      2 C                     0.203125
      3 C                     0.552227
      4 C                     2.216765
      5 C                    -0.206543
      6 C                     0.563011
      7 O                    -0.916450
      8 C                     0.533297
      9 O                    -1.104870
     10 O                    -1.207108
     11 C                     0.977098
     12 O                    -1.175047
     13 C                     0.882108
     14 H                    -0.099441
     15 H                    -0.285208
     16 H                     0.148808
     17 H                    -0.219984
     18 H                    -0.408103
     19 H                    -0.109358
     20 H                    -0.103249
     21 H                    -0.284988
     22 H                    -0.383116
     23 H                    -0.991283
     24 O                    -0.299953
     25 H                     0.152457
     26 H                     0.146531
  ----------------------------------------
  Sum of atomic charges =     0.000000

 -----------------------------------------------------------------
                    Cartesian Multipole Moments
 -----------------------------------------------------------------
    Charge (ESU x 10^10)
                -0.0000
    Dipole Moment (Debye)
         X       5.4654      Y      -0.0390      Z       0.6542
       Tot       5.5046
    Quadrupole Moments (Debye-Ang)
        XX     -57.0156     XY       5.5375     YY     -71.3546
        XZ       7.9605     YZ       2.5126     ZZ     -83.1283
    Octopole Moments (Debye-Ang^2)
       XXX     838.1035    XXY      50.4846    XYY      -3.5427
       YYY       6.3889    XXZ      42.1668    XYZ      -8.1881
       YYZ       9.5282    XZZ      51.7537    YZZ      15.9919
       ZZZ       5.7988
    Hexadecapole Moments (Debye-Ang^3)
      XXXX    3874.4203   XXXY     451.7765   XXYY   -1339.0108
      XYYY     -16.7733   YYYY   -1469.3970   XXXZ    1036.0121
      XXYZ     136.1316   XYYZ     -32.3521   YYYZ       5.3126
      XXZZ    -807.1508   XYZZ      18.9878   YYZZ    -351.2308
      XZZZ     132.8481   YZZZ       8.3964   ZZZZ    -544.8229
 -----------------------------------------------------------------
 Total job time:  2318.47s(wall), 61411.61s(cpu) 
 Tue May  6 20:25:13 2025

        *************************************************************
        *                                                           *
        *  Thank you very much for using Q-Chem.  Have a nice day.  *
        *                                                           *
        *************************************************************


