                  Welcome to Q-Chem
     A Quantum Leap Into The Future Of Chemistry


 Q-Chem 6.2 (devel), Q-Chem, Inc., Pleasanton, CA (2024)

 E. Epifanovsky,  A. T. B. Gilbert,  Xintian Feng,  Joonho Lee,  Yuezhi Mao,  
 N. Mardirossian,  P. Pokhilko,  A. White,  M. Wormit,  M. P. Coons,  
 A. L. Dempwolff,  Zhengting Gan,  D. Hait,  P. R. Horn,  L. D. Jacobson,  
 I. Kaliman,  J. Kussmann,  A. W. Lange,  Ka Un Lao,  D. S. Levine,  Jie Liu,  
 S. C. McKenzie,  A. F. Morrison,  K. D. Nanda,  F. Plasser,  D. R. Rehn,  
 M. L. Vidal,  Zhi-Qiang You,  Ying Zhu,  Huseyin Aksu,  B. Alam,  
 B. Albrecht,  A. Aldossary,  E. Alguire,  J. H. Andersen,  
 J. E. Arias-Martinez,  V. Athavale,  D. Barton,  K. Begam,  A. Behn,  
 N. Bellonzi,  Y. A. Bernard,  E. J. Berquist,  H. Burton,  A. Carreras,  
 K. Carter-Fenk,  Mathew Chow,  Romit Chakraborty,  Chandrima Chakravarty,  
 Junhan Chen,  A. D. Chien,  K. D. Closser,  V. Cofer-Shabica,  L. Cunha,  
 S. Dasgupta,  Jia Deng,  Joseph Dickinson,  M. de Wergifosse,  
 M. Diedenhofen,  Hainam Do,  Wenjie Dou,  S. Ehlert,  Po-Tung Fang,  
 S. Fatehi,  Qingguo Feng,  Jonathan Fetherolf,  T. Friedhoff,  
 Thomas Froitzheim,  Sarai Folkestad,  B. Ganoe,  J. Gayvert,  Qinghui Ge,  
 G. Gidofalvi,  M. Gimferrer,  M. Goldey,  Montgomery Gray,  J. Gomes,  
 C. Gonzalez-Espinoza,  S. Gulania,  A. Gunina,  J. A. Gyamfi,  
 M. W. D. Hanson-Heine,  P. H. P. Harbach,  A. W. Hauser,  M. F. Herbst,  
 M. Hernandez Vera,  M. Hodecker,  Z. C. Holden,  S. Houck,  Xunkun Huang,  
 Kerwin Hui,  B. C. Huynh,  K. Ikeda,  M. Ivanov,  Nayanthara K. Jayadev,  
 Hyunjun Ji,  Zuxin Jin,  Hanjie Jiang,  Subrata Jana,  B. Kaduk,  
 S. Kaehler,  R. Kang,  K. Khistyaev,  Jaehoon Kim,  Yongbin Kim,  
 P. Klunzinger,  Z. Koczor-Benda,  Joong Hoon Koh,  D. Kosenkov,  
 Saikiran Kotaru,  L. Koulias,  T. Kowalczyk,  C. M. Krauter,  K. Kue,  
 A. Kunitsa,  T. Kus,  A. Landau,  K. V. Lawler,  D. Lefrancois,  S. Lehtola,  
 Rain Li,  Shaozhi Li,  Tao E. Li,  Yi-Pei Li,  Jiashu Liang,  M. Liebenthal,  
 Hung-Hsuan Lin,  You-Sheng Lin,  Fenglai Liu,  Kuan-Yu Liu,  Xiao Liu,  
 M. Loipersberger,  A. Luenser,  C. Malbon,  Aniket Mandal,  Manisha,  
 A. Manjanath,  P. Manohar,  E. Mansoor,  S. F. Manzer,  Shan-Ping Mao,  
 A. V. Marenich,  T. Markovich,  S. Mason,  F. Matz,  S. A. Maurer,  
 Samuel May,  Alexandra McIsaac,  P. F. McLaughlin,  M. F. S. J. Menger,  
 J.-M. Mewes,  S. A. Mewes,  P. Morgante,  Mohammad Mostafanejad,  
 Madhubani Mukherjee,  J. W. Mullinax,  Quyen Nguyen,  Avik Kumar Ojha,  
 K. J. Oosterbaan,  Eno Paenurk,  Xiaoliang Pan,  G. Paran,  V. Parravicini,  
 Alexander C. Paul,  Suranjan K. Paul,  F. Pavosevic,  Zheng Pei,  S. Prager,  
 E. I. Proynov,  E. Ramos,  B. Rana,  A. E. Rask,  A. Rettig,  R. M. Richard,  
 F. Rob,  E. Rossomme,  T. Scheele,  M. Scheurer,  M. Schneider,  
 P. E. Schneider,  Tim K. Schramm,  N. Sergueev,  S. M. Sharada,  
 Hengyuan Shen,  W. Skomorowski,  D. W. Small,  C. J. Stein,  
 Alistair J. Sterling,  Yingli Su,  Yu-Chuan Su,  E. J. Sundstrom,  
 J. Talbot,  Zhen Tao,  J. Thirman,  Hung-Yi Tsai,  T. Tsuchimochi,  
 N. M. Tubman,  C. Utku,  S. P. Veccham,  O. Vydrov,  Rahel Weiss,  
 J. Wenzel,  Jonathan Wong,  J. Witte,  H. Wu,  Yanze Wu,  A. Yamada,  
 Chou-Hsun Yang,  Kun Yao,  S. Yeganeh,  S. R. Yost,  Qi Yu,  A. Zech,  
 F. Zeller,  Chongxiao Zhao,  Igor Ying Zhang,  Xing Zhang,  Yu Zhang,  
 D. Zuev,  A. Aspuru-Guzik,  A. T. Bell,  N. A. Besley,  K. B. Bravaya,  
 B. R. Brooks,  D. Casanova,  Jeng-Da Chai,  Hsing-Ta Chen,  S. Coriani,  
 C. J. Cramer,  A. E. DePrince, III,  R. A. DiStasio Jr.,  A. Dreuw,  
 B. D. Dunietz,  T. R. Furlani,  W. A. Goddard III,  S. Grimme,  
 S. Hammes-Schiffer,  T. Head-Gordon,  W. J. Hehre,  Chao-Ping Hsu,  
 T.-C. Jagau,  Yousung Jung,  A. Klamt,  Jing Kong,  D. S. Lambrecht,  
 Xiangyuan Li,  WanZhen Liang,  N. J. Mayhall,  C. W. McCurdy,  J. B. Neaton,  
 T. Neudecker,  C. Ochsenfeld,  J. A. Parkhill,  R. Peverati,  
 V. A. Rassolov,  Haisheng Ren,  Yihan Shao,  L. V. Slipchenko,  
 R. P. Steele,  J. E. Subotnik,  A. J. W. Thom,  A. Tkatchenko,  
 D. G. Truhlar,  T. Van Voorhis,  Fan Wang,  T. A. Wesolowski,  K. B. Whaley,  
 H. L. Woodcock III,  P. M. Zimmerman,  S. Faraji,  P. M. W. Gill,  
 M. Head-Gordon,  J. M. Herbert,  A. I. Krylov

 Contributors to earlier versions of Q-Chem not listed above: 
 R. D. Adamson,  B. Austin,  R. Baer,  J. Baker,  G. J. O. Beran,  
 K. Brandhorst,  S. T. Brown,  E. F. C. Byrd,  Arup K. Chakraborty,  
 G. K. L. Chan,  Chun-Min Chang,  Yunqing Chen,  C.-L. Cheng,  
 Siu Hung Chien,  D. M. Chipman,  D. L. Crittenden,  H. Dachsel,  
 R. J. Doerksen,  A. D. Dutoi,  R. G. Edgar,  J. Fosso-Tande,  
 L. Fusti-Molnar,  D. Ghosh,  A. Ghysels,  A. Golubeva-Zadorozhnaya,  
 J. Gonthier,  M. S. Gordon,  S. R. Gwaltney,  G. Hawkins,  J. E. Herr,  
 A. Heyden,  S. Hirata,  E. G. Hohenstein,  G. Kedziora,  F. J. Keil,  
 C. Kelley,  Jihan Kim,  R. A. King,  R. Z. Khaliullin,  P. P. Korambath,  
 W. Kurlancheek,  A. Laurent,  A. M. Lee,  M. S. Lee,  S. V. Levchenko,  
 Ching Yeh Lin,  D. Liotard,  E. Livshits,  R. C. Lochan,  I. Lotan,  
 L. A. Martinez-Martinez,  P. E. Maslen,  N. Nair,  D. P. O'Neill,  
 D. Neuhauser,  E. Neuscamman,  C. M. Oana,  R. Olivares-Amaya,  R. Olson,  
 T. M. Perrine,  B. Peters,  P. A. Pieniazek,  A. Prociuk,  Y. M. Rhee,  
 J. Ritchie,  M. A. Rohrdanz,  E. Rosta,  N. J. Russ,  H. F. Schaefer III,  
 M. W. Schmidt,  N. E. Schultz,  S. Sharma,  N. Shenvi,  C. D. Sherrill,  
 A. C. Simmonett,  A. Sodt,  T. Stein,  D. Stuck,  K. S. Thanthiriwatte,  
 V. Vanovschi,  L. Vogt,  Tao Wang,  A. Warshel,  M. A. Watson,  
 C. F. Williams,  Q. Wu,  X. Xu,  Jun Yang,  W. Zhang,  Yan Zhao

   Please cite Q-Chem as follows:
  "Software for the frontiers of quantum chemistry:
   An overview of developments in the Q-Chem 5 package"
   J. Chem. Phys. 155, 084801 (2021)
   https://doi.org/10.1063/5.0055522 (open access)

 Q-Chem 6.2.2 for Intel X86 EM64T Linux

 Parts of Q-Chem use Armadillo 9.900.5 (Nocturnal Misbehaviour).
 http://arma.sourceforge.net/

 Q-Chem begins on Thu Mar  6 03:07:30 2025  

 Host: node134
0

     Scratch files written to /temp0/mauro/qchem201558//
 Processing $rem in /home/robin/qchem-cc2//config/preferences:
 Processing $rem in /home/mauro/.qchemrc:

 Checking the input file for inconsistencies... 	...done.

--------------------------------------------------------------
User input:
--------------------------------------------------------------
$molecule
 0 1
C -0.6112786069 -1.7290824906 0.3408311261
C -1.9988876920 -1.2420879877 0.0598119224
C -2.2397375459 0.1970969759 -0.1391988467
C -1.2193907550 1.0957536421 0.0621842561
C 0.1351941130 0.6226189117 0.3930367067
C 0.4053380815 -0.8483137175 0.4731811283
O -2.9232818634 -2.0618793389 0.0104942501
O 1.0502310041 1.4222361168 0.6161644751
O -3.4415189747 0.7182554321 -0.4709040945
C -4.6171569533 -0.0855305671 -0.7167965500
O -1.5201641800 2.4016182075 -0.1215171332
C -0.7226844773 3.4695350222 0.4399239865
C -0.4975884029 -3.2230423657 0.4420887155
C 1.8365595883 -1.2123939652 0.7911372836
C 2.8012656165 -0.9686173294 -0.3438728965
C 3.8351700197 -0.1162044952 -0.3743761556
C 4.2257308366 0.8070476725 0.7464734146
C 4.7041315633 -0.0206795253 -1.6030259704
H 0.5406249883 -3.5521151979 0.4876881675
H -0.9866801715 -3.6956191230 -0.4150154191
H -1.0248138036 -3.5864165840 1.3319439858
H -4.4425174532 -0.8084921330 -1.5156460295
H -5.3663000870 0.6479663330 -1.0204654671
H -4.9326319855 -0.6088516245 0.1869550686
H 0.2080837540 3.5986286931 -0.1134382167
H -0.4997037598 3.2793026069 1.4921949860
H -1.3607476954 4.3495910720 0.3383489397
H 1.8815175465 -2.2663253189 1.0824727829
H 2.1414771539 -0.6255640547 1.6632637905
H 2.6159774573 -1.5723546924 -1.2339912580
H 3.6000756107 0.6958137776 1.6328269247
H 4.1451640330 1.8505363181 0.4155216515
H 5.2736475045 0.6400468380 1.0299267583
H 4.6787637554 0.9964572939 -2.0172252722
H 4.3811263854 -0.7189358290 -2.3805057843
H 5.7532373214 -0.2345310899 -1.3580105223
$end

$rem
   MEM_TOTAL                    80000
   METHOD			TPSS
   DFT_D 			D3_BJ
   BASIS			def2-ma-TZVP
   JOBTYPE			opt
$end

$opt
CONSTRAINT
  bend 6 14 15 114.1
  tors 1 6 14 15 111.8
  tors 4 3 9 10 0180 
  tors 3 4 11 12 0180
ENDCONSTRAINT
$end
--------------------------------------------------------------
 Adding empirical dispersion correction 
 ----------------------------------------------------------------
 Doing -D3(BJ) with
 s6  =   1.00000
 s8  =   1.94350
 a1  =   0.45350
 a2  =   4.47520
 ----------------------------------------------------------------
 -D3 energy without 3body term =     -0.0510970256 hartrees
 ----------------------------------------------------------------
             Standard Nuclear Orientation (Angstroms)
    I     Atom           X                Y                Z
 ----------------------------------------------------------------
    1      C      -0.6256506496    -1.7082679736     0.3221006354
    2      C      -2.0054721956    -1.1987099587     0.0427486312
    3      C      -2.2224755810     0.2437907804    -0.1596580049
    4      C      -1.1866909091     1.1256586984     0.0370794351
    5      C       0.1604543934     0.6306488478     0.3662978482
    6      C       0.4059511254    -0.8444077820     0.4498621048
    7      O      -2.9436545858    -2.0029331744    -0.0023456980
    8      O       1.0893234523     1.4153251514     0.5852762895
    9      O      -3.4160322038     0.7842394968    -0.4901892191
   10      C      -4.6055850662    -0.0002735467    -0.7313592023
   11      O      -1.4658219146     2.4359095965    -0.1495259845
   12      C      -0.6492277658     3.4917360744     0.4072870676
   13      C      -0.5369266257    -3.2036547159     0.4271777913
   14      C       1.8315311426    -1.2317054014     0.7657223802
   15      C       2.7977074678    -1.0072716662    -0.3720234988
   16      C       3.8457582654    -0.1724918371    -0.4070744099
   17      C       4.2542858971     0.7470515490     0.7104143870
   18      C       4.7134998664    -0.0949257184    -1.6378495975
   19      H       0.4956924745    -3.5500567904     0.4714347824
   20      H      -1.0357968305    -3.6702195586    -0.4275811300
   21      H      -1.0682402012    -3.5557006487     1.3191527873
   22      H      -4.4449105102    -0.7282178555    -1.5286130151
   23      H      -5.3429292299     0.7449285080    -1.0354076037
   24      H      -4.9278433028    -0.5157748703     0.1744909109
   25      H       0.2823634020     3.6036369571    -0.1484291304
   26      H      -0.4271687269     3.3005976269     1.4595887856
   27      H      -1.2725938189     4.3821461232     0.3046931107
   28      H       1.8593654723    -2.2854589622     1.0598270769
   29      H       2.1482119172    -0.6477593782     1.6355896336
   30      H       2.6003143463    -1.6101873872    -1.2600943247
   31      H       3.6287974632     0.6487588928     1.5984136881
   32      H       4.1905847199     1.7908577815     0.3767988273
   33      H       5.2998611928     0.5631728025     0.9920619101
   34      H       4.7043624849     0.9213786522    -2.0547594570
   35      H       4.3770649020    -0.7897229598    -2.4127285426
   36      H       5.7593900702    -0.3257715953    -1.3945148159
 ----------------------------------------------------------------
 Molecular Point Group                 C1    NOp =  1
 Largest Abelian Subgroup              C1    NOp =  1
 Nuclear Repulsion Energy =        1344.35513225 hartrees
 There are       67 alpha and       67 beta electrons
 Requested basis set is def2-ma-TZVP
 There are 292 shells and 696 basis functions

 Total QAlloc Memory Limit  80000 MB
 Mega-Array Size       188 MB
 MEM_STATIC part       192 MB

 A cutoff of  1.0D-12 yielded  32183 shell pairs
 There are    176481 function pairs (    222309 Cartesian)
 Smallest overlap matrix eigenvalue = 4.49E-06

 Scale SEOQF with 1.000000e-02/1.000000e-01/1.000000e-01

 Standard Electronic Orientation quadrupole field applied
 Nucleus-field energy     =     0.0000000245 hartrees
 Guess from superposition of atomic densities
 Warning:  Energy on first SCF cycle will be non-variational
 SAD guess density has 134.000000 electrons

 -----------------------------------------------------------------------
  General SCF calculation program by
  Eric Jon Sundstrom, Paul Horn, Yuezhi Mao, Dmitri Zuev, Alec White,
  David Stuck, Shaama M.S., Shane Yost, Joonho Lee, David Small,
  Daniel Levine, Susi Lehtola, Hugh Burton, Evgeny Epifanovsky,
  Bang C. Huynh
 -----------------------------------------------------------------------
 Exchange:  TPSS      Correlation:  TPSS
 Using SG-2 standard quadrature grid
 Dispersion:   Grimme D3
 using 16 threads for integral computing
 -------------------------------------------------------
 OpenMP Integral computing Module                
 Release: version 1.0, May 2013, Q-Chem Inc. Pittsburgh 
 -------------------------------------------------------
 A restricted SCF calculation will be
 performed using DIIS
 SCF converges when DIIS error is below 1.0e-08
 ---------------------------------------
  Cycle       Energy         DIIS error
 ---------------------------------------
    1    -848.5109628536      2.01e-02  
    2    -845.2097205518      2.79e-03  
    3    -844.4880818694      4.68e-03  
    4    -845.4762012900      1.76e-03  
    5    -845.6291334072      4.96e-04  
    6    -845.6177548924      6.33e-04  
    7    -845.6441810108      1.36e-04  
    8    -845.6451619457      5.26e-05  
    9    -845.6452841735      1.99e-05  
   10    -845.6453033719      6.78e-06  
   11    -845.6453052307      3.46e-06  
   12    -845.6453058243      8.73e-07  
   13    -845.6453058652      2.68e-07  
   14    -845.6453058691      7.78e-08  
   15    -845.6453058695      3.12e-08  
   16    -845.6453058696      1.25e-08  
   17    -845.6453058696      2.90e-09  Convergence criterion met
 ---------------------------------------
 SCF time:   CPU 2375.32s  wall 166.00s 
 SCF   energy =  -845.64530587
 Total energy =  -845.64530587

 --------------------------------------------------------------

                    Orbital Energies (a.u.)
 --------------------------------------------------------------

 Alpha MOs
 -- Occupied --
-18.9232 -18.9202 -18.8803 -18.8783 -10.0798 -10.0782 -10.0576 -10.0551
-10.0378 -10.0367 -10.0165 -10.0149  -9.9972  -9.9920  -9.9876  -9.9789
 -9.9766  -9.9755  -1.0146  -0.9949  -0.9721  -0.9677  -0.7939  -0.7567
 -0.7389  -0.6982  -0.6710  -0.6669  -0.6367  -0.6305  -0.6094  -0.5885
 -0.5366  -0.5344  -0.4939  -0.4736  -0.4682  -0.4645  -0.4380  -0.4263
 -0.4177  -0.4100  -0.4062  -0.4015  -0.3994  -0.3925  -0.3886  -0.3846
 -0.3705  -0.3656  -0.3561  -0.3519  -0.3445  -0.3422  -0.3384  -0.3324
 -0.3263  -0.3198  -0.3147  -0.2990  -0.2967  -0.2842  -0.2495  -0.2263
 -0.2233  -0.2044  -0.1891
 -- Virtual --
 -0.1375  -0.0296  -0.0148  -0.0082  -0.0025   0.0063   0.0111   0.0177
  0.0206   0.0278   0.0393   0.0468   0.0477   0.0518   0.0601   0.0615
  0.0649   0.0695   0.0768   0.0851   0.0890   0.0947   0.1019   0.1036
  0.1099   0.1127   0.1152   0.1183   0.1198   0.1240   0.1300   0.1341
  0.1401   0.1425   0.1503   0.1538   0.1582   0.1603   0.1616   0.1688
  0.1736   0.1756   0.1809   0.1884   0.1907   0.1963   0.2001   0.2039
  0.2083   0.2168   0.2220   0.2234   0.2258   0.2345   0.2407   0.2459
  0.2498   0.2526   0.2540   0.2601   0.2677   0.2719   0.2734   0.2789
  0.2814   0.2937   0.2961   0.2977   0.3018   0.3053   0.3119   0.3172
  0.3242   0.3311   0.3344   0.3370   0.3393   0.3482   0.3553   0.3585
  0.3678   0.3720   0.3803   0.3810   0.3840   0.3929   0.3943   0.4020
  0.4043   0.4101   0.4154   0.4160   0.4196   0.4214   0.4242   0.4262
  0.4320   0.4356   0.4449   0.4455   0.4473   0.4491   0.4555   0.4571
  0.4588   0.4641   0.4704   0.4716   0.4738   0.4762   0.4849   0.4883
  0.4942   0.5024   0.5038   0.5107   0.5145   0.5169   0.5252   0.5292
  0.5385   0.5436   0.5553   0.5613   0.5685   0.5702   0.5775   0.5806
  0.5889   0.5960   0.5966   0.6093   0.6151   0.6266   0.6289   0.6364
  0.6432   0.6482   0.6496   0.6580   0.6635   0.6733   0.6791   0.6803
  0.6893   0.6959   0.7014   0.7056   0.7121   0.7209   0.7263   0.7371
  0.7455   0.7555   0.7581   0.7711   0.7742   0.7831   0.7880   0.8052
  0.8089   0.8271   0.8284   0.8374   0.8454   0.8539   0.8577   0.8702
  0.8897   0.8956   0.9020   0.9193   0.9321   0.9455   0.9556   0.9668
  0.9729   0.9823   0.9833   0.9961   1.0125   1.0168   1.0274   1.0316
  1.0351   1.0453   1.0495   1.0633   1.0732   1.0772   1.0902   1.0943
  1.1006   1.1045   1.1092   1.1132   1.1250   1.1298   1.1405   1.1509
  1.1686   1.1730   1.1823   1.1896   1.1955   1.1960   1.2119   1.2339
  1.2391   1.2428   1.2594   1.2796   1.2854   1.2903   1.3036   1.3236
  1.3347   1.3491   1.3631   1.3663   1.3884   1.4069   1.4246   1.4311
  1.4387   1.4459   1.4624   1.4643   1.4740   1.4791   1.4909   1.4939
  1.5058   1.5130   1.5206   1.5240   1.5281   1.5367   1.5440   1.5463
  1.5567   1.5618   1.5653   1.5703   1.5783   1.5788   1.5792   1.5883
  1.5918   1.5950   1.6070   1.6159   1.6235   1.6323   1.6366   1.6392
  1.6576   1.6591   1.6664   1.6727   1.6921   1.6940   1.7077   1.7226
  1.7330   1.7542   1.7564   1.7838   1.8011   1.8095   1.8211   1.8374
  1.8465   1.8603   1.8657   1.8748   1.8854   1.8882   1.8982   1.9062
  1.9180   1.9288   1.9449   1.9509   1.9534   1.9662   1.9688   1.9867
  1.9883   2.0045   2.0151   2.0351   2.0395   2.0516   2.0530   2.0679
  2.0755   2.0840   2.0869   2.1054   2.1094   2.1217   2.1336   2.1509
  2.1704   2.1796   2.1878   2.1986   2.2066   2.2181   2.2288   2.2409
  2.2465   2.2535   2.2834   2.2851   2.3022   2.3075   2.3103   2.3247
  2.3311   2.3421   2.3475   2.3526   2.3634   2.3720   2.3759   2.3781
  2.3867   2.3969   2.4010   2.4147   2.4189   2.4333   2.4503   2.4536
  2.4623   2.4724   2.4845   2.4917   2.4978   2.5022   2.5169   2.5215
  2.5303   2.5334   2.5370   2.5450   2.5480   2.5566   2.5633   2.5729
  2.5854   2.5952   2.6025   2.6132   2.6221   2.6283   2.6451   2.6536
  2.6603   2.6659   2.6881   2.6950   2.7005   2.7097   2.7255   2.7277
  2.7426   2.7544   2.7642   2.7718   2.7752   2.7901   2.7943   2.7980
  2.8123   2.8217   2.8341   2.8516   2.8577   2.8656   2.8756   2.8864
  2.8950   2.9071   2.9112   2.9192   2.9398   2.9429   2.9551   2.9749
  2.9829   2.9882   3.0026   3.0046   3.0093   3.0165   3.0277   3.0408
  3.0436   3.0525   3.0617   3.0716   3.0767   3.0905   3.0957   3.0978
  3.1128   3.1234   3.1390   3.1509   3.1522   3.1618   3.1677   3.1739
  3.1846   3.1926   3.1969   3.2024   3.2137   3.2234   3.2274   3.2300
  3.2361   3.2441   3.2483   3.2541   3.2625   3.2796   3.2815   3.2897
  3.2987   3.3023   3.3118   3.3186   3.3244   3.3330   3.3405   3.3464
  3.3549   3.3563   3.3573   3.3654   3.3715   3.3796   3.3842   3.3873
  3.3930   3.4031   3.4104   3.4207   3.4314   3.4347   3.4386   3.4487
  3.4556   3.4666   3.4796   3.4961   3.4980   3.5103   3.5130   3.5237
  3.5381   3.5415   3.5501   3.5633   3.5707   3.5712   3.5892   3.6029
  3.6053   3.6265   3.6315   3.6460   3.6634   3.6763   3.6918   3.7131
  3.7335   3.7364   3.7566   3.7709   3.7769   3.7878   3.7935   3.8193
  3.8457   3.8650   3.8701   3.8771   3.8953   3.9027   3.9183   3.9357
  3.9542   3.9614   4.0060   4.0149   4.0282   4.0371   4.0565   4.0761
  4.0800   4.0988   4.1294   4.1415   4.1519   4.1724   4.1853   4.2062
  4.2222   4.2334   4.2617   4.2842   4.3055   4.3181   4.3334   4.3487
  4.3555   4.3878   4.3952   4.4056   4.4254   4.4360   4.4575   4.4680
  4.4854   4.4952   4.4992   4.5244   4.5295   4.5383   4.5587   4.5725
  4.5784   4.5975   4.6105   4.6153   4.6307   4.6572   4.6815   4.7087
  4.7591   4.7753   4.8193   4.8479   4.8553   4.9091   4.9370   4.9544
  4.9999   5.0216   5.0898   5.1073   5.1312   5.1777   5.1886   5.2144
  5.2314   5.2401   5.2597   5.2823   5.3390   5.3525   5.3768   5.4474
  5.4899   5.5251   5.5585   5.5774   5.6324   5.6490   5.6849   5.7750
  5.8405   5.8604   5.8782   5.9526   6.0408   6.0538   6.1410   6.1597
  6.2267   6.3218   6.3417   6.3770   6.3930   6.4385   6.5161   6.5683
  6.5843   6.6100   6.6355   6.7125   6.7658   6.7760   6.8191   6.8447
  6.8674   6.9060   6.9745   7.0629   7.1162   7.1342   7.1920   7.2200
  7.3133   7.3956   7.5533  22.2978  22.3158  22.3515  22.3766  22.3914
 22.4477  22.5121  22.6057  22.7721  23.0014  23.0756  23.1453  23.1589
 23.7224  43.9799  44.1201  44.2279  44.4306
 --------------------------------------------------------------

          Ground-State Mulliken Net Atomic Charges

     Atom                 Charge (a.u.)
  ----------------------------------------
      1 C                    -0.004372
      2 C                     0.288462
      3 C                     0.124666
      4 C                     0.068827
      5 C                     0.326755
      6 C                     0.075514
      7 O                    -0.430745
      8 O                    -0.440619
      9 O                    -0.314633
     10 C                    -0.165091
     11 O                    -0.306107
     12 C                    -0.181314
     13 C                    -0.376916
     14 C                    -0.265646
     15 C                    -0.197596
     16 C                     0.103865
     17 C                    -0.339964
     18 C                    -0.385557
     19 H                     0.125312
     20 H                     0.155970
     21 H                     0.148317
     22 H                     0.148700
     23 H                     0.141731
     24 H                     0.153332
     25 H                     0.158062
     26 H                     0.141369
     27 H                     0.139426
     28 H                     0.121331
     29 H                     0.133801
     30 H                     0.099710
     31 H                     0.124498
     32 H                     0.127292
     33 H                     0.124267
     34 H                     0.128392
     35 H                     0.120758
     36 H                     0.128202
  ----------------------------------------
  Sum of atomic charges =     0.000000

 -----------------------------------------------------------------
                    Cartesian Multipole Moments
 -----------------------------------------------------------------
    Charge (ESU x 10^10)
                -0.0000
    Dipole Moment (Debye)
         X       0.4954      Y      -0.0054      Z       0.2483
       Tot       0.5542
    Quadrupole Moments (Debye-Ang)
        XX    -104.2146     XY      -2.7721     YY    -104.1653
        XZ       0.3330     YZ       1.0255     ZZ    -105.2243
    Octopole Moments (Debye-Ang^2)
       XXX     -48.3328    XXY      18.6915    XYY       4.5486
       YYY      39.1621    XXZ     -12.1702    XYZ      -5.2153
       YYZ       5.4906    XZZ     -12.5308    YZZ       1.3954
       ZZZ       0.3638
    Hexadecapole Moments (Debye-Ang^3)
      XXXX   -4608.2762   XXXY     -10.6297   XXYY   -1231.1673
      XYYY     -39.3061   YYYY   -1796.6029   XXXZ      66.4239
      XXYZ       0.5990   XYYZ      -9.4567   YYYZ      10.4441
      XXZZ    -878.9440   XYZZ       4.6593   YYZZ    -386.0028
      XZZZ      17.3704   YZZZ       6.7133   ZZZZ    -426.1613
 -----------------------------------------------------------------
 Calculating analytic gradient of the SCF energy
 Gradient of SCF Energy
            1           2           3           4           5           6
    1  -0.0006072   0.0000134   0.0000346  -0.0000229  -0.0000454   0.0003223
    2   0.0002551   0.0000092  -0.0000247   0.0001017  -0.0000209  -0.0001949
    3   0.0029243  -0.0000627  -0.0002080   0.0003598   0.0000527  -0.0019064
            7           8           9          10          11          12
    1   0.0000930   0.0000351   0.0000727  -0.0000939   0.0000011  -0.0000479
    2  -0.0000444   0.0000227  -0.0000149   0.0000360   0.0000585  -0.0000135
    3   0.0000014   0.0000284  -0.0004927   0.0003892  -0.0000229   0.0000314
           13          14          15          16          17          18
    1  -0.0000169  -0.0020946   0.0024092  -0.0000667   0.0000132  -0.0000144
    2   0.0000476  -0.0014903   0.0014240  -0.0000397  -0.0000222  -0.0000091
    3   0.0000261  -0.0034430   0.0023013  -0.0000274  -0.0000213  -0.0000092
           19          20          21          22          23          24
    1  -0.0000120  -0.0000072  -0.0000103  -0.0000034   0.0000058  -0.0000185
    2  -0.0000221  -0.0000079   0.0000088   0.0000062   0.0000168   0.0000246
    3   0.0000064  -0.0000007  -0.0000007   0.0000054  -0.0000087   0.0000002
           25          26          27          28          29          30
    1   0.0000095   0.0000095   0.0000238   0.0000221  -0.0000157  -0.0000184
    2  -0.0000323  -0.0000104   0.0000091  -0.0000108   0.0000002  -0.0000045
    3   0.0000102  -0.0000071  -0.0000104   0.0000049  -0.0000038   0.0000227
           31          32          33          34          35          36
    1   0.0000113   0.0000224  -0.0000009  -0.0000085   0.0000056   0.0000005
    2   0.0000105  -0.0000044  -0.0000235  -0.0000096  -0.0000081  -0.0000226
    3   0.0000106   0.0000068   0.0000171   0.0000054   0.0000110   0.0000095
 Max gradient component =       3.443E-03
 RMS gradient           =       6.455E-04
 Gradient time:  CPU 161.98 s  wall 11.09 s
 Geometry Optimization Parameters
   NAtoms,    NIC,     NZ,  NCons,   NDum,   NFix, NCnnct, MaxDiis
       36     238       0       4       0       0       0       0


** CONSTRAINED OPTIMIZATION IN DELOCALIZED INTERNAL COORDINATES **
   Searching for a Minimum

   Optimization Cycle:   1

                       Coordinates (Angstroms)
     ATOM                X               Y               Z
      1  C        -0.6256506496   -1.7082679736    0.3221006354
      2  C        -2.0054721956   -1.1987099587    0.0427486312
      3  C        -2.2224755810    0.2437907804   -0.1596580049
      4  C        -1.1866909091    1.1256586984    0.0370794351
      5  C         0.1604543934    0.6306488478    0.3662978482
      6  C         0.4059511254   -0.8444077820    0.4498621048
      7  O        -2.9436545858   -2.0029331744   -0.0023456980
      8  O         1.0893234523    1.4153251514    0.5852762895
      9  O        -3.4160322038    0.7842394968   -0.4901892191
     10  C        -4.6055850662   -0.0002735467   -0.7313592023
     11  O        -1.4658219146    2.4359095965   -0.1495259845
     12  C        -0.6492277658    3.4917360744    0.4072870676
     13  C        -0.5369266257   -3.2036547159    0.4271777913
     14  C         1.8315311426   -1.2317054014    0.7657223802
     15  C         2.7977074678   -1.0072716662   -0.3720234988
     16  C         3.8457582654   -0.1724918371   -0.4070744099
     17  C         4.2542858971    0.7470515490    0.7104143870
     18  C         4.7134998664   -0.0949257184   -1.6378495975
     19  H         0.4956924745   -3.5500567904    0.4714347824
     20  H        -1.0357968305   -3.6702195586   -0.4275811300
     21  H        -1.0682402012   -3.5557006487    1.3191527873
     22  H        -4.4449105102   -0.7282178555   -1.5286130151
     23  H        -5.3429292299    0.7449285080   -1.0354076037
     24  H        -4.9278433028   -0.5157748703    0.1744909109
     25  H         0.2823634020    3.6036369571   -0.1484291304
     26  H        -0.4271687269    3.3005976269    1.4595887856
     27  H        -1.2725938189    4.3821461232    0.3046931107
     28  H         1.8593654723   -2.2854589622    1.0598270769
     29  H         2.1482119172   -0.6477593782    1.6355896336
     30  H         2.6003143463   -1.6101873872   -1.2600943247
     31  H         3.6287974632    0.6487588928    1.5984136881
     32  H         4.1905847199    1.7908577815    0.3767988273
     33  H         5.2998611928    0.5631728025    0.9920619101
     34  H         4.7043624849    0.9213786522   -2.0547594570
     35  H         4.3770649020   -0.7897229598   -2.4127285426
     36  H         5.7593900702   -0.3257715953   -1.3945148159
   Point Group: c1    Number of degrees of freedom:   102


   Energy is   -845.645305870

              Constraints and their Current Values
                                        Value     Constraint
   Angle:           6  14  15          114.100      114.100
   Dihedral:        1   6  14  15      111.800      111.800
   Dihedral:        4   3   9  10      180.000      180.000
   Dihedral:        3   4  11  12      160.000      180.000

 Attempting to generate delocalized internal coordinates
 Initial Hessian constructed with Jon Baker's OPTIMIZE code
**WARNING** Constraint Gradient Reduced for constraint   4

   Using Lagrange Multiplier Algorithm


100 Hessian modes will be used to form the next step
  Hessian Eigenvalues:
    -0.977753    0.045000    0.045000    0.045000    0.045000    0.045000
     0.045000    0.045000    0.045000    0.045000    0.045001    0.045001
     0.045001    0.045002    0.045024    0.045029    0.045046    0.045061
     0.045150    0.064996    0.091863    0.091962    0.092641    0.092985
     0.094530    0.095320    0.095466    0.113599    0.113816    0.116586
     0.119509    0.119644    0.134605    0.160000    0.160000    0.160000
     0.160000    0.160000    0.160000    0.160000    0.160000    0.160000
     0.160000    0.160000    0.160000    0.160000    0.160000    0.160000
     0.160000    0.220000    0.249333    0.249398    0.249624    0.249783
     0.249850    0.249915    0.249990    0.249990    0.249992    0.249994
     0.249997    0.250000    0.250000    0.312858    0.314093    0.315612
     0.317396    0.319880    0.321999    0.323725    0.338450    0.338645
     0.338657    0.339406    0.340958    0.342968    0.343113    0.343373
     0.343787    0.345449    0.346100    0.346359    0.346419    0.346520
     0.347039    0.347253    0.347417    0.347542    0.348044    0.351177
     0.387406    0.388781    0.483887    0.535556    0.544745    0.547534
     0.571301    0.884208    0.888317    1.022753

 Minimum search - taking P-RFO step
 Searching for Lamda that maximizes along the constraint modes only
 Value Taken    Lamda =   0.04496959
 Searching for Lamda that minimizes along all other modes
 Value Taken    Lamda =  -0.04135801
 Step Taken.  Stepsize is  0.287567

                             Maximum     Tolerance    Cnvgd?
         Gradient            0.300000       0.000300      NO
         Displacement        0.287557       0.001200      NO
         Energy change     *********       0.000001      NO


 New Cartesian Coordinates Obtained by Inverse Iteration

 Displacement from previous Coordinates is:  1.370506
 Adding empirical dispersion correction 
 ----------------------------------------------------------------
 Doing -D3(BJ) with
 s6  =   1.00000
 s8  =   1.94350
 a1  =   0.45350
 a2  =   4.47520
 ----------------------------------------------------------------
 -D3 energy without 3body term =     -0.0511667534 hartrees
 ----------------------------------------------------------------
             Standard Nuclear Orientation (Angstroms)
    I     Atom           X                Y                Z
 ----------------------------------------------------------------
    1      C      -0.6373181695    -1.7267503040     0.3288627383
    2      C      -2.0188295640    -1.2143560943     0.0651268047
    3      C      -2.2415534943     0.2334535206    -0.0887477958
    4      C      -1.2161814941     1.1157056978     0.1584025879
    5      C       0.1383894052     0.6127807946     0.4437663689
    6      C       0.3904619606    -0.8628242873     0.4785296194
    7      O      -2.9530421348    -2.0206116307    -0.0139333931
    8      O       1.0689165959     1.3930867189     0.6710223847
    9      O      -3.4342473291     0.7782392731    -0.4150140502
   10      C      -4.6139040863    -0.0046448703    -0.7050831948
   11      O      -1.4889774902     2.4258506105    -0.0379891129
   12      C      -0.5329647495     3.4715841069     0.2523790575
   13      C      -0.5413553965    -3.2243641273     0.3846672373
   14      C       1.8206357202    -1.2520967560     0.7699239460
   15      C       2.7765539145    -0.9827796037    -0.3668046179
   16      C       3.8188119565    -0.1400646465    -0.3805191419
   17      C       4.2289220768     0.7432313717     0.7652511984
   18      C       4.6771917956    -0.0139380763    -1.6138719686
   19      H       0.4930322175    -3.5669558481     0.4149786699
   20      H      -1.0402234276    -3.6649553227    -0.4837629528
   21      H      -1.0686787768    -3.6080819920     1.2658800295
   22      H      -4.4358879484    -0.6985729070    -1.5285609784
   23      H      -5.3527551175     0.7467116241    -0.9896982446
   24      H      -4.9449786206    -0.5587262951     0.1744246191
   25      H       0.2480074328     3.5135047863    -0.5075855160
   26      H      -0.0798429523     3.3252165789     1.2354662881
   27      H      -1.1350180992     4.3822809012     0.2418549500
   28      H       1.8567403534    -2.3148638380     1.0285063819
   29      H       2.1410594077    -0.6955738791     1.6562494160
   30      H       2.5764169701    -1.5561828581    -1.2736346438
   31      H       3.6103574526     0.6097608957     1.6535117382
   32      H       4.1555444647     1.7974336536     0.4683401353
   33      H       5.2777223535     0.5572872672     1.0331972187
   34      H       4.6582178427     1.0160733588    -1.9953126552
   35      H       4.3399252349    -0.6838776303    -2.4100024869
   36      H       5.7263516333    -0.2456544348    -1.3859561882
 ----------------------------------------------------------------
 Molecular Point Group                 C1    NOp =  1
 Largest Abelian Subgroup              C1    NOp =  1
 Nuclear Repulsion Energy =        1345.69583521 hartrees
 There are       67 alpha and       67 beta electrons
 Applying Cartesian multipole field
    Component          Value
    ---------          -----
     (2,0,0)        1.00000E-12
     (0,2,0)        2.00000E-11
     (0,0,2)       -3.00000E-11
 Nucleus-field energy     =     0.0000000245 hartrees
 Requested basis set is def2-ma-TZVP
 There are 292 shells and 696 basis functions
 A cutoff of  1.0D-12 yielded  32224 shell pairs
 There are    176894 function pairs (    222895 Cartesian)
 Smallest overlap matrix eigenvalue = 4.97E-06
 Guess MOs from SCF MO coefficient file

 -----------------------------------------------------------------------
  General SCF calculation program by
  Eric Jon Sundstrom, Paul Horn, Yuezhi Mao, Dmitri Zuev, Alec White,
  David Stuck, Shaama M.S., Shane Yost, Joonho Lee, David Small,
  Daniel Levine, Susi Lehtola, Hugh Burton, Evgeny Epifanovsky,
  Bang C. Huynh
 -----------------------------------------------------------------------
 Exchange:  TPSS      Correlation:  TPSS
 Using SG-2 standard quadrature grid
 Dispersion:   Grimme D3
 A restricted SCF calculation will be
 performed using DIIS
 SCF converges when DIIS error is below 1.0e-08
 ---------------------------------------
  Cycle       Energy         DIIS error
 ---------------------------------------
    1    -845.6141185472      5.73e-04  
    2    -845.6433984805      1.33e-04  
    3    -845.6366973864      3.60e-04  
    4    -845.6428768700      1.41e-04  
    5    -845.6442144316      3.37e-05  
    6    -845.6442682746      1.25e-05  
    7    -845.6442768093      3.96e-06  
    8    -845.6442775135      1.82e-06  
    9    -845.6442776783      5.16e-07  
   10    -845.6442776901      1.37e-07  
   11    -845.6442776908      7.78e-08  
   12    -845.6442776910      2.61e-08  
   13    -845.6442776910      5.99e-09  Convergence criterion met
 ---------------------------------------
 SCF time:   CPU 1880.72s  wall 132.00s 
 SCF   energy =  -845.64427769
 Total energy =  -845.64427769

 --------------------------------------------------------------

                    Orbital Energies (a.u.)
 --------------------------------------------------------------

 Alpha MOs
 -- Occupied --
-18.9223 -18.9221 -18.8794 -18.8784 -10.0790 -10.0790 -10.0565 -10.0557
-10.0372 -10.0360 -10.0165 -10.0147  -9.9973  -9.9919  -9.9879  -9.9793
 -9.9768  -9.9758  -1.0148  -0.9953  -0.9720  -0.9679  -0.7939  -0.7568
 -0.7390  -0.6983  -0.6707  -0.6668  -0.6370  -0.6303  -0.6094  -0.5885
 -0.5372  -0.5343  -0.4940  -0.4738  -0.4676  -0.4645  -0.4379  -0.4266
 -0.4179  -0.4106  -0.4060  -0.4013  -0.3994  -0.3925  -0.3886  -0.3843
 -0.3703  -0.3651  -0.3559  -0.3513  -0.3449  -0.3420  -0.3386  -0.3327
 -0.3258  -0.3201  -0.3160  -0.2991  -0.2969  -0.2875  -0.2494  -0.2261
 -0.2229  -0.2044  -0.1876
 -- Virtual --
 -0.1370  -0.0295  -0.0154  -0.0076  -0.0028   0.0057   0.0113   0.0179
  0.0213   0.0271   0.0394   0.0461   0.0477   0.0534   0.0580   0.0617
  0.0647   0.0697   0.0775   0.0846   0.0893   0.0939   0.1027   0.1028
  0.1100   0.1124   0.1158   0.1186   0.1201   0.1259   0.1301   0.1329
  0.1408   0.1445   0.1494   0.1540   0.1574   0.1601   0.1660   0.1688
  0.1710   0.1745   0.1799   0.1880   0.1896   0.1948   0.2003   0.2059
  0.2098   0.2156   0.2235   0.2244   0.2269   0.2327   0.2388   0.2489
  0.2504   0.2533   0.2555   0.2592   0.2674   0.2694   0.2778   0.2796
  0.2833   0.2904   0.2952   0.3002   0.3018   0.3070   0.3115   0.3223
  0.3232   0.3314   0.3341   0.3368   0.3403   0.3518   0.3568   0.3592
  0.3684   0.3707   0.3786   0.3823   0.3829   0.3906   0.3931   0.3998
  0.4001   0.4071   0.4131   0.4151   0.4177   0.4192   0.4219   0.4268
  0.4316   0.4374   0.4424   0.4441   0.4460   0.4477   0.4560   0.4593
  0.4601   0.4620   0.4690   0.4723   0.4749   0.4792   0.4867   0.4899
  0.4964   0.5022   0.5038   0.5077   0.5146   0.5222   0.5257   0.5328
  0.5421   0.5447   0.5574   0.5656   0.5699   0.5722   0.5741   0.5847
  0.5888   0.5923   0.5999   0.6137   0.6167   0.6273   0.6343   0.6386
  0.6436   0.6496   0.6516   0.6580   0.6658   0.6759   0.6801   0.6852
  0.6892   0.6964   0.7026   0.7060   0.7116   0.7231   0.7259   0.7348
  0.7406   0.7564   0.7638   0.7699   0.7754   0.7799   0.7928   0.8042
  0.8125   0.8214   0.8264   0.8407   0.8477   0.8555   0.8618   0.8707
  0.8897   0.8937   0.9042   0.9209   0.9334   0.9443   0.9500   0.9652
  0.9675   0.9805   0.9838   1.0069   1.0134   1.0179   1.0216   1.0290
  1.0324   1.0425   1.0508   1.0662   1.0694   1.0786   1.0832   1.0939
  1.1036   1.1056   1.1132   1.1148   1.1253   1.1314   1.1427   1.1528
  1.1651   1.1709   1.1774   1.1870   1.1911   1.1994   1.2141   1.2291
  1.2375   1.2420   1.2554   1.2778   1.2866   1.2929   1.3041   1.3243
  1.3384   1.3539   1.3624   1.3638   1.3874   1.4054   1.4240   1.4361
  1.4402   1.4449   1.4575   1.4630   1.4704   1.4789   1.4926   1.4975
  1.5015   1.5114   1.5217   1.5251   1.5317   1.5363   1.5428   1.5468
  1.5536   1.5642   1.5643   1.5703   1.5766   1.5788   1.5798   1.5825
  1.5927   1.5959   1.6045   1.6190   1.6255   1.6328   1.6354   1.6434
  1.6544   1.6592   1.6648   1.6740   1.6924   1.7026   1.7104   1.7234
  1.7344   1.7515   1.7608   1.7834   1.7967   1.8028   1.8180   1.8392
  1.8500   1.8557   1.8601   1.8743   1.8856   1.8869   1.9011   1.9081
  1.9174   1.9303   1.9513   1.9527   1.9558   1.9695   1.9726   1.9867
  1.9936   1.9988   2.0156   2.0338   2.0384   2.0521   2.0547   2.0701
  2.0800   2.0848   2.0891   2.1049   2.1108   2.1270   2.1339   2.1516
  2.1695   2.1821   2.1893   2.1942   2.2031   2.2170   2.2249   2.2359
  2.2488   2.2552   2.2813   2.2828   2.3030   2.3066   2.3106   2.3302
  2.3346   2.3449   2.3485   2.3544   2.3688   2.3732   2.3770   2.3815
  2.3911   2.3940   2.4061   2.4126   2.4232   2.4319   2.4505   2.4574
  2.4647   2.4775   2.4867   2.4918   2.4959   2.5021   2.5182   2.5255
  2.5320   2.5336   2.5378   2.5431   2.5526   2.5601   2.5648   2.5763
  2.5867   2.5966   2.6010   2.6119   2.6240   2.6269   2.6493   2.6591
  2.6651   2.6801   2.6873   2.6937   2.7032   2.7066   2.7196   2.7322
  2.7463   2.7541   2.7638   2.7674   2.7761   2.7909   2.7928   2.8007
  2.8161   2.8294   2.8341   2.8501   2.8580   2.8718   2.8795   2.8823
  2.8939   2.9123   2.9155   2.9249   2.9442   2.9553   2.9587   2.9772
  2.9841   2.9850   2.9968   3.0043   3.0090   3.0158   3.0211   3.0392
  3.0448   3.0530   3.0549   3.0648   3.0770   3.0889   3.0986   3.1009
  3.1135   3.1304   3.1400   3.1470   3.1541   3.1628   3.1663   3.1696
  3.1813   3.1947   3.1969   3.2027   3.2096   3.2228   3.2275   3.2326
  3.2365   3.2474   3.2486   3.2558   3.2596   3.2792   3.2834   3.2896
  3.2950   3.3049   3.3080   3.3162   3.3249   3.3328   3.3436   3.3463
  3.3546   3.3569   3.3575   3.3719   3.3757   3.3813   3.3844   3.3880
  3.3905   3.4029   3.4134   3.4168   3.4304   3.4327   3.4380   3.4497
  3.4543   3.4654   3.4852   3.4910   3.4973   3.5106   3.5191   3.5255
  3.5378   3.5440   3.5524   3.5630   3.5677   3.5714   3.5887   3.5946
  3.6076   3.6191   3.6248   3.6440   3.6572   3.6713   3.6924   3.7066
  3.7323   3.7378   3.7588   3.7705   3.7789   3.7875   3.7912   3.8224
  3.8446   3.8639   3.8698   3.8722   3.8967   3.8992   3.9199   3.9369
  3.9547   3.9656   4.0063   4.0148   4.0288   4.0357   4.0567   4.0758
  4.0805   4.0897   4.1307   4.1383   4.1529   4.1704   4.1926   4.2093
  4.2318   4.2362   4.2656   4.2776   4.2973   4.3205   4.3261   4.3525
  4.3581   4.3860   4.3967   4.4053   4.4249   4.4357   4.4557   4.4678
  4.4856   4.4970   4.4995   4.5225   4.5315   4.5416   4.5592   4.5732
  4.5777   4.5991   4.6107   4.6168   4.6271   4.6571   4.6840   4.7073
  4.7595   4.7718   4.8192   4.8501   4.8543   4.9128   4.9371   4.9575
  5.0032   5.0256   5.0903   5.1070   5.1455   5.1798   5.1898   5.2154
  5.2317   5.2429   5.2575   5.2957   5.3298   5.3528   5.3760   5.4463
  5.5022   5.5255   5.5660   5.5688   5.6021   5.6518   5.6846   5.7576
  5.8388   5.8621   5.8727   5.9429   6.0405   6.0638   6.1416   6.1637
  6.2257   6.3225   6.3439   6.3816   6.4210   6.4363   6.5221   6.5685
  6.5872   6.5970   6.6205   6.7176   6.7691   6.7806   6.8196   6.8404
  6.8761   6.9019   6.9646   7.0662   7.1204   7.1354   7.1920   7.2175
  7.2945   7.4042   7.5451  22.3032  22.3180  22.3625  22.3788  22.3915
 22.4469  22.5145  22.6081  22.7727  23.0007  23.0786  23.1388  23.1570
 23.7146  43.9821  44.1164  44.2220  44.4037
 --------------------------------------------------------------

          Ground-State Mulliken Net Atomic Charges

     Atom                 Charge (a.u.)
  ----------------------------------------
      1 C                    -0.003486
      2 C                     0.282524
      3 C                     0.116027
      4 C                     0.066544
      5 C                     0.331904
      6 C                     0.079408
      7 O                    -0.430703
      8 O                    -0.443173
      9 O                    -0.319129
     10 C                    -0.165000
     11 O                    -0.320929
     12 C                    -0.161824
     13 C                    -0.377714
     14 C                    -0.262768
     15 C                    -0.199176
     16 C                     0.104680
     17 C                    -0.339880
     18 C                    -0.385824
     19 H                     0.124979
     20 H                     0.156644
     21 H                     0.148410
     22 H                     0.147979
     23 H                     0.141844
     24 H                     0.155178
     25 H                     0.143634
     26 H                     0.165198
     27 H                     0.137694
     28 H                     0.121447
     29 H                     0.132857
     30 H                     0.099900
     31 H                     0.124529
     32 H                     0.126818
     33 H                     0.124219
     34 H                     0.127898
     35 H                     0.120880
     36 H                     0.128410
  ----------------------------------------
  Sum of atomic charges =     0.000000

 -----------------------------------------------------------------
                    Cartesian Multipole Moments
 -----------------------------------------------------------------
    Charge (ESU x 10^10)
                -0.0000
    Dipole Moment (Debye)
         X       0.7071      Y       0.0387      Z      -0.0589
       Tot       0.7106
    Quadrupole Moments (Debye-Ang)
        XX    -104.7739     XY      -2.2278     YY    -104.1774
        XZ       0.6576     YZ      -0.0691     ZZ    -105.2851
    Octopole Moments (Debye-Ang^2)
       XXX     -44.8503    XXY      18.2410    XYY       7.8311
       YYY      39.6626    XXZ     -14.3427    XYZ      -3.7660
       YYZ       0.6018    XZZ     -11.4150    YZZ       1.6649
       ZZZ      -7.5289
    Hexadecapole Moments (Debye-Ang^3)
      XXXX   -4586.2847   XXXY     -32.3978   XXYY   -1231.1511
      XYYY     -56.2865   YYYY   -1800.3676   XXXZ      64.7364
      XXYZ      -0.8788   XYYZ      -7.4466   YYYZ       6.5326
      XXZZ    -874.6408   XYZZ      -2.7803   YYZZ    -385.7790
      XZZZ      15.8068   YZZZ       9.7302   ZZZZ    -422.1323
 -----------------------------------------------------------------
 Calculating analytic gradient of the SCF energy
 Gradient of SCF Energy
            1           2           3           4           5           6
    1  -0.0005499   0.0007364   0.0005528  -0.0026254   0.0002989   0.0000550
    2   0.0006652  -0.0013653   0.0005638   0.0009344   0.0001889  -0.0004618
    3   0.0034395  -0.0022290  -0.0034393   0.0104387  -0.0015230  -0.0018646
            7           8           9          10          11          12
    1  -0.0000689  -0.0013563   0.0004809  -0.0000977   0.0002466   0.0021282
    2   0.0004158   0.0017991  -0.0003021  -0.0000705   0.0002025  -0.0014093
    3   0.0007309   0.0000200   0.0001196   0.0001652  -0.0028581  -0.0060594
           13          14          15          16          17          18
    1  -0.0000742  -0.0022096   0.0024195  -0.0000619  -0.0000147   0.0000308
    2  -0.0000333  -0.0014808   0.0013212   0.0000520   0.0000307   0.0000210
    3   0.0000350  -0.0036187   0.0022756  -0.0000092   0.0000847  -0.0000304
           19          20          21          22          23          24
    1  -0.0000017   0.0000227   0.0000228   0.0000044   0.0000007  -0.0000152
    2   0.0000236  -0.0000518   0.0000008   0.0000596   0.0000221  -0.0000395
    3  -0.0000745  -0.0000411  -0.0000058   0.0000608   0.0000685   0.0000529
           25          26          27          28          29          30
    1  -0.0005632   0.0006389   0.0000869  -0.0000185   0.0000136  -0.0000519
    2   0.0008097  -0.0016883  -0.0001727   0.0000141   0.0000136   0.0000585
    3   0.0008671   0.0018077   0.0015618   0.0000727  -0.0000464  -0.0000352
           31          32          33          34          35          36
    1  -0.0000366   0.0000366   0.0000045  -0.0000146  -0.0000096  -0.0000106
    2  -0.0000325  -0.0000252  -0.0000237  -0.0000390   0.0000208  -0.0000217
    3   0.0000108  -0.0000132   0.0000131   0.0000069  -0.0000037   0.0000200
 Max gradient component =       1.044E-02
 RMS gradient           =       1.542E-03
 Gradient time:  CPU 162.53 s  wall 11.13 s
 Geometry Optimization Parameters
   NAtoms,    NIC,     NZ,  NCons,   NDum,   NFix, NCnnct, MaxDiis
       36     238       0       4       0       0       0       0

 Cartesian Hessian Update
 Hessian updated using BFGS update


** CONSTRAINED OPTIMIZATION IN DELOCALIZED INTERNAL COORDINATES **
   Searching for a Minimum

   Optimization Cycle:   2

                       Coordinates (Angstroms)
     ATOM                X               Y               Z
      1  C        -0.6373181695   -1.7267503040    0.3288627383
      2  C        -2.0188295640   -1.2143560943    0.0651268047
      3  C        -2.2415534943    0.2334535206   -0.0887477958
      4  C        -1.2161814941    1.1157056978    0.1584025879
      5  C         0.1383894052    0.6127807946    0.4437663689
      6  C         0.3904619606   -0.8628242873    0.4785296194
      7  O        -2.9530421348   -2.0206116307   -0.0139333931
      8  O         1.0689165959    1.3930867189    0.6710223847
      9  O        -3.4342473291    0.7782392731   -0.4150140502
     10  C        -4.6139040863   -0.0046448703   -0.7050831948
     11  O        -1.4889774902    2.4258506105   -0.0379891129
     12  C        -0.5329647495    3.4715841069    0.2523790575
     13  C        -0.5413553965   -3.2243641273    0.3846672373
     14  C         1.8206357202   -1.2520967560    0.7699239460
     15  C         2.7765539145   -0.9827796037   -0.3668046179
     16  C         3.8188119565   -0.1400646465   -0.3805191419
     17  C         4.2289220768    0.7432313717    0.7652511984
     18  C         4.6771917956   -0.0139380763   -1.6138719686
     19  H         0.4930322175   -3.5669558481    0.4149786699
     20  H        -1.0402234276   -3.6649553227   -0.4837629528
     21  H        -1.0686787768   -3.6080819920    1.2658800295
     22  H        -4.4358879484   -0.6985729070   -1.5285609784
     23  H        -5.3527551175    0.7467116241   -0.9896982446
     24  H        -4.9449786206   -0.5587262951    0.1744246191
     25  H         0.2480074328    3.5135047863   -0.5075855160
     26  H        -0.0798429523    3.3252165789    1.2354662881
     27  H        -1.1350180992    4.3822809012    0.2418549500
     28  H         1.8567403534   -2.3148638380    1.0285063819
     29  H         2.1410594077   -0.6955738791    1.6562494160
     30  H         2.5764169701   -1.5561828581   -1.2736346438
     31  H         3.6103574526    0.6097608957    1.6535117382
     32  H         4.1555444647    1.7974336536    0.4683401353
     33  H         5.2777223535    0.5572872672    1.0331972187
     34  H         4.6582178427    1.0160733588   -1.9953126552
     35  H         4.3399252349   -0.6838776303   -2.4100024869
     36  H         5.7263516333   -0.2456544348   -1.3859561882
   Point Group: c1    Number of degrees of freedom:   102


   Energy is   -845.644277691

              Constraints and their Current Values
                                        Value     Constraint
   Angle:           6  14  15          114.100      114.100
   Dihedral:        1   6  14  15      111.800      111.800
   Dihedral:        4   3   9  10      180.000      180.000
   Dihedral:        3   4  11  12      176.476      180.000
 Hessian updated using BFGS update

   Using Lagrange Multiplier Algorithm


 82 Hessian modes will be used to form the next step
  Hessian Eigenvalues:
    -0.988375    0.044999    0.045000    0.045000    0.045001    0.045001
     0.045001    0.045002    0.045019    0.045024    0.045045    0.045053
     0.045144    0.050822    0.065026    0.091863    0.091962    0.092641
     0.092985    0.094530    0.095320    0.095468    0.113600    0.113894
     0.116586    0.119644    0.120617    0.134608    0.159999    0.160000
     0.162199    0.220018    0.249341    0.249477    0.249635    0.249803
     0.249871    0.249919    0.249980    0.249990    0.249993    0.249994
     0.249997    0.250000    0.311504    0.313192    0.314095    0.315613
     0.319877    0.321906    0.322463    0.324360    0.338451    0.338645
     0.338657    0.339406    0.340959    0.342968    0.343113    0.343373
     0.343787    0.346070    0.346193    0.346359    0.346421    0.346520
     0.347039    0.347417    0.347501    0.348044    0.350447    0.367651
     0.388125    0.388797    0.483906    0.535565    0.546758    0.548663
     0.571301    0.884232    0.888319    1.014744

 Minimum search - taking P-RFO step
 Searching for Lamda that maximizes along the constraint modes only
 Value Taken    Lamda =   0.00160775
 Searching for Lamda that minimizes along all other modes
 Value Taken    Lamda =  -0.00321093
 Step Taken.  Stepsize is  0.102319

                             Maximum     Tolerance    Cnvgd?
         Gradient            0.061508       0.000300      NO
         Displacement        0.061350       0.001200      NO
         Energy change      0.001028       0.000001      NO


 New Cartesian Coordinates Obtained by Inverse Iteration

 Displacement from previous Coordinates is:  0.421108
 Adding empirical dispersion correction 
 ----------------------------------------------------------------
 Doing -D3(BJ) with
 s6  =   1.00000
 s8  =   1.94350
 a1  =   0.45350
 a2  =   4.47520
 ----------------------------------------------------------------
 -D3 energy without 3body term =     -0.0510681461 hartrees
 ----------------------------------------------------------------
             Standard Nuclear Orientation (Angstroms)
    I     Atom           X                Y                Z
 ----------------------------------------------------------------
    1      C      -0.6329582092    -1.7319073643     0.3282158176
    2      C      -2.0140628422    -1.2152837964     0.0729033098
    3      C      -2.2338678749     0.2329194718    -0.0706938812
    4      C      -1.2105381708     1.1151811734     0.1858338516
    5      C       0.1470197293     0.6063914366     0.4623082123
    6      C       0.3959468899    -0.8702576635     0.4830267788
    7      O      -2.9480552423    -2.0205734769    -0.0195521214
    8      O       1.0855260612     1.3749765416     0.6962400665
    9      O      -3.4256234245     0.7817431641    -0.3954129169
   10      C      -4.6057102417     0.0033150890    -0.6951739600
   11      O      -1.5085821329     2.4239341305     0.0072429763
   12      C      -0.5744400665     3.5077940346     0.2231358042
   13      C      -0.5388249616    -3.2300356409     0.3695166450
   14      C       1.8258119881    -1.2650799094     0.7695138163
   15      C       2.7808704490    -0.9890291972    -0.3663582676
   16      C       3.8256072733    -0.1492504571    -0.3750415666
   17      C       4.2400444533     0.7239603348     0.7767927049
   18      C       4.6825528566    -0.0159221629    -1.6086267905
   19      H       0.4950678162    -3.5745690479     0.3941425713
   20      H      -1.0406989514    -3.6612430907    -0.5018421251
   21      H      -1.0647091408    -3.6213806565     1.2482444992
   22      H      -4.4265672443    -0.6841074474    -1.5239674980
   23      H      -5.3424562888     0.7582069282    -0.9759328065
   24      H      -4.9402183520    -0.5573689395     0.1787132088
   25      H       0.1615855179     3.5481228838    -0.5820817736
   26      H      -0.0633558852     3.4158509183     1.1813176821
   27      H      -1.2085012690     4.3967710839     0.2104379833
   28      H       1.8596899744    -2.3301327105     1.0188193071
   29      H       2.1486176808    -0.7169257849     1.6602109665
   30      H       2.5781884937    -1.5549838231    -1.2772993532
   31      H       3.6227230714     0.5852935000     1.6650838405
   32      H       4.1688929825     1.7806583308     0.4883021089
   33      H       5.2887986591     0.5331493013     1.0414375668
   34      H       4.6660523656     1.0171405178    -1.9819594095
   35      H       4.3422564756    -0.6787083302    -2.4094596135
   36      H       5.7314174980    -0.2523235830    -1.3841731857
 ----------------------------------------------------------------
 Molecular Point Group                 C1    NOp =  1
 Largest Abelian Subgroup              C1    NOp =  1
 Nuclear Repulsion Energy =        1344.32521221 hartrees
 There are       67 alpha and       67 beta electrons
 Applying Cartesian multipole field
    Component          Value
    ---------          -----
     (2,0,0)        1.00000E-12
     (0,2,0)        2.00000E-11
     (0,0,2)       -3.00000E-11
 Nucleus-field energy     =     0.0000000247 hartrees
 Requested basis set is def2-ma-TZVP
 There are 292 shells and 696 basis functions
 A cutoff of  1.0D-12 yielded  32191 shell pairs
 There are    176589 function pairs (    222473 Cartesian)
 Smallest overlap matrix eigenvalue = 5.10E-06
 Guess MOs from SCF MO coefficient file

 -----------------------------------------------------------------------
  General SCF calculation program by
  Eric Jon Sundstrom, Paul Horn, Yuezhi Mao, Dmitri Zuev, Alec White,
  David Stuck, Shaama M.S., Shane Yost, Joonho Lee, David Small,
  Daniel Levine, Susi Lehtola, Hugh Burton, Evgeny Epifanovsky,
  Bang C. Huynh
 -----------------------------------------------------------------------
 Exchange:  TPSS      Correlation:  TPSS
 Using SG-2 standard quadrature grid
 Dispersion:   Grimme D3
 A restricted SCF calculation will be
 performed using DIIS
 SCF converges when DIIS error is below 1.0e-08
 ---------------------------------------
  Cycle       Energy         DIIS error
 ---------------------------------------
    1    -845.6415189004      1.76e-04  
    2    -845.6442278078      3.62e-05  
    3    -845.6438691372      8.54e-05  
    4    -845.6441755798      4.04e-05  
    5    -845.6442810446      1.34e-05  
    6    -845.6442903790      3.57e-06  
    7    -845.6442909912      1.26e-06  
    8    -845.6442910570      5.43e-07  
    9    -845.6442910708      1.89e-07  
   10    -845.6442910726      8.10e-08  
   11    -845.6442910728      2.75e-08  
   12    -845.6442910728      6.37e-09  Convergence criterion met
 ---------------------------------------
 SCF time:   CPU 1693.99s  wall 118.00s 
 SCF   energy =  -845.64429107
 Total energy =  -845.64429107

 --------------------------------------------------------------

                    Orbital Energies (a.u.)
 --------------------------------------------------------------

 Alpha MOs
 -- Occupied --
-18.9221 -18.9218 -18.8792 -18.8784 -10.0791 -10.0787 -10.0566 -10.0560
-10.0379 -10.0371 -10.0159 -10.0145  -9.9970  -9.9916  -9.9875  -9.9790
 -9.9765  -9.9755  -1.0142  -0.9940  -0.9717  -0.9677  -0.7935  -0.7566
 -0.7391  -0.6979  -0.6703  -0.6680  -0.6367  -0.6300  -0.6095  -0.5881
 -0.5366  -0.5340  -0.4934  -0.4736  -0.4675  -0.4649  -0.4374  -0.4262
 -0.4176  -0.4104  -0.4054  -0.4011  -0.3992  -0.3922  -0.3886  -0.3844
 -0.3707  -0.3662  -0.3555  -0.3510  -0.3446  -0.3420  -0.3384  -0.3325
 -0.3251  -0.3197  -0.3154  -0.2977  -0.2963  -0.2874  -0.2491  -0.2263
 -0.2228  -0.2043  -0.1875
 -- Virtual --
 -0.1368  -0.0292  -0.0149  -0.0077  -0.0025   0.0058   0.0110   0.0180
  0.0211   0.0267   0.0394   0.0464   0.0478   0.0533   0.0575   0.0618
  0.0647   0.0698   0.0776   0.0845   0.0894   0.0935   0.1023   0.1030
  0.1097   0.1121   0.1156   0.1185   0.1204   0.1262   0.1301   0.1326
  0.1414   0.1448   0.1491   0.1537   0.1565   0.1603   0.1664   0.1685
  0.1697   0.1742   0.1795   0.1868   0.1886   0.1943   0.2004   0.2044
  0.2107   0.2152   0.2232   0.2242   0.2262   0.2329   0.2382   0.2480
  0.2500   0.2536   0.2575   0.2593   0.2666   0.2693   0.2781   0.2819
  0.2835   0.2893   0.2943   0.3004   0.3019   0.3077   0.3110   0.3226
  0.3239   0.3313   0.3337   0.3387   0.3417   0.3524   0.3578   0.3593
  0.3689   0.3710   0.3777   0.3804   0.3825   0.3895   0.3937   0.3993
  0.3995   0.4063   0.4127   0.4152   0.4180   0.4195   0.4228   0.4264
  0.4321   0.4377   0.4419   0.4428   0.4460   0.4479   0.4542   0.4586
  0.4595   0.4618   0.4691   0.4727   0.4748   0.4783   0.4869   0.4894
  0.4964   0.5016   0.5037   0.5064   0.5130   0.5220   0.5261   0.5333
  0.5411   0.5445   0.5567   0.5663   0.5696   0.5711   0.5744   0.5846
  0.5885   0.5908   0.6010   0.6147   0.6159   0.6266   0.6355   0.6365
  0.6446   0.6493   0.6518   0.6580   0.6618   0.6771   0.6811   0.6813
  0.6888   0.6967   0.7008   0.7069   0.7130   0.7229   0.7255   0.7347
  0.7378   0.7572   0.7630   0.7680   0.7758   0.7797   0.7942   0.8037
  0.8130   0.8226   0.8257   0.8407   0.8473   0.8561   0.8612   0.8711
  0.8905   0.8950   0.9043   0.9219   0.9329   0.9449   0.9498   0.9660
  0.9677   0.9801   0.9838   1.0089   1.0136   1.0194   1.0230   1.0299
  1.0323   1.0394   1.0500   1.0673   1.0684   1.0781   1.0839   1.0944
  1.1013   1.1055   1.1126   1.1151   1.1252   1.1322   1.1400   1.1501
  1.1579   1.1706   1.1772   1.1858   1.1930   1.2007   1.2148   1.2264
  1.2374   1.2421   1.2551   1.2773   1.2843   1.2921   1.3050   1.3248
  1.3389   1.3507   1.3631   1.3650   1.3875   1.4058   1.4242   1.4355
  1.4401   1.4471   1.4569   1.4631   1.4705   1.4790   1.4925   1.4970
  1.5015   1.5111   1.5216   1.5250   1.5306   1.5362   1.5427   1.5462
  1.5539   1.5637   1.5652   1.5676   1.5760   1.5767   1.5792   1.5825
  1.5902   1.5975   1.6027   1.6198   1.6264   1.6331   1.6347   1.6406
  1.6522   1.6592   1.6641   1.6732   1.6930   1.7040   1.7121   1.7257
  1.7358   1.7521   1.7586   1.7823   1.7947   1.8030   1.8178   1.8391
  1.8486   1.8536   1.8607   1.8745   1.8851   1.8873   1.9006   1.9088
  1.9163   1.9284   1.9506   1.9527   1.9553   1.9696   1.9742   1.9858
  1.9933   1.9979   2.0159   2.0345   2.0394   2.0524   2.0555   2.0700
  2.0773   2.0836   2.0860   2.1027   2.1107   2.1255   2.1339   2.1496
  2.1651   2.1799   2.1854   2.1935   2.2042   2.2168   2.2244   2.2359
  2.2488   2.2583   2.2797   2.2823   2.3026   2.3062   2.3108   2.3297
  2.3355   2.3451   2.3488   2.3543   2.3652   2.3733   2.3757   2.3795
  2.3885   2.3919   2.4050   2.4171   2.4253   2.4319   2.4462   2.4567
  2.4642   2.4714   2.4840   2.4929   2.4958   2.5015   2.5138   2.5254
  2.5304   2.5336   2.5382   2.5426   2.5545   2.5578   2.5656   2.5761
  2.5871   2.5948   2.5997   2.6117   2.6253   2.6276   2.6460   2.6566
  2.6647   2.6841   2.6856   2.6936   2.7041   2.7069   2.7183   2.7313
  2.7392   2.7538   2.7612   2.7672   2.7765   2.7907   2.7928   2.7999
  2.8166   2.8292   2.8340   2.8488   2.8580   2.8727   2.8805   2.8826
  2.8940   2.9120   2.9164   2.9254   2.9454   2.9531   2.9559   2.9761
  2.9806   2.9847   2.9946   3.0054   3.0082   3.0176   3.0218   3.0386
  3.0448   3.0516   3.0542   3.0624   3.0784   3.0876   3.0960   3.1006
  3.1135   3.1321   3.1422   3.1459   3.1524   3.1573   3.1634   3.1694
  3.1799   3.1942   3.1971   3.2033   3.2088   3.2197   3.2266   3.2298
  3.2364   3.2460   3.2490   3.2548   3.2589   3.2781   3.2827   3.2901
  3.2920   3.3041   3.3083   3.3174   3.3243   3.3328   3.3430   3.3465
  3.3560   3.3567   3.3583   3.3696   3.3747   3.3791   3.3849   3.3853
  3.3900   3.4025   3.4138   3.4180   3.4303   3.4327   3.4397   3.4487
  3.4539   3.4648   3.4830   3.4935   3.4979   3.5086   3.5138   3.5264
  3.5356   3.5430   3.5529   3.5630   3.5668   3.5712   3.5865   3.5942
  3.6081   3.6198   3.6251   3.6428   3.6548   3.6715   3.6923   3.7074
  3.7328   3.7367   3.7576   3.7688   3.7807   3.7849   3.7917   3.8207
  3.8434   3.8618   3.8697   3.8722   3.8959   3.8967   3.9131   3.9379
  3.9554   3.9656   4.0062   4.0139   4.0290   4.0356   4.0562   4.0757
  4.0807   4.0879   4.1277   4.1383   4.1528   4.1683   4.1915   4.2080
  4.2312   4.2372   4.2651   4.2742   4.2953   4.3199   4.3249   4.3521
  4.3529   4.3845   4.3965   4.4053   4.4201   4.4349   4.4552   4.4678
  4.4844   4.4956   4.5006   4.5206   4.5331   4.5377   4.5577   4.5726
  4.5777   4.5988   4.6103   4.6169   4.6240   4.6574   4.6822   4.7078
  4.7599   4.7729   4.8196   4.8497   4.8543   4.9154   4.9374   4.9600
  5.0058   5.0256   5.0892   5.1071   5.1447   5.1793   5.1902   5.2156
  5.2322   5.2404   5.2510   5.2953   5.3200   5.3449   5.3764   5.4479
  5.4937   5.5239   5.5625   5.5647   5.5936   5.6494   5.6847   5.7531
  5.8439   5.8572   5.8739   5.9466   6.0422   6.0586   6.1441   6.1651
  6.2339   6.3224   6.3441   6.3815   6.4256   6.4384   6.5267   6.5626
  6.5825   6.5879   6.6156   6.7115   6.7700   6.7793   6.8199   6.8405
  6.8758   6.9026   6.9613   7.0645   7.1177   7.1344   7.1921   7.2203
  7.2936   7.4036   7.5419  22.3016  22.3173  22.3634  22.3780  22.3921
 22.4471  22.5145  22.6079  22.7656  23.0006  23.0770  23.1384  23.1557
 23.7120  43.9822  44.1142  44.2265  44.4083
 --------------------------------------------------------------

          Ground-State Mulliken Net Atomic Charges

     Atom                 Charge (a.u.)
  ----------------------------------------
      1 C                    -0.004757
      2 C                     0.283203
      3 C                     0.124291
      4 C                     0.063579
      5 C                     0.326301
      6 C                     0.079118
      7 O                    -0.431390
      8 O                    -0.439155
      9 O                    -0.316943
     10 C                    -0.166469
     11 O                    -0.321518
     12 C                    -0.169677
     13 C                    -0.377592
     14 C                    -0.263016
     15 C                    -0.199865
     16 C                     0.105708
     17 C                    -0.340154
     18 C                    -0.386087
     19 H                     0.124938
     20 H                     0.156699
     21 H                     0.148129
     22 H                     0.147867
     23 H                     0.141695
     24 H                     0.155518
     25 H                     0.142677
     26 H                     0.168530
     27 H                     0.141165
     28 H                     0.121450
     29 H                     0.133494
     30 H                     0.099714
     31 H                     0.124682
     32 H                     0.126796
     33 H                     0.124139
     34 H                     0.127792
     35 H                     0.120787
     36 H                     0.128351
  ----------------------------------------
  Sum of atomic charges =     0.000000

 -----------------------------------------------------------------
                    Cartesian Multipole Moments
 -----------------------------------------------------------------
    Charge (ESU x 10^10)
                -0.0000
    Dipole Moment (Debye)
         X       0.6458      Y       0.1475      Z      -0.1445
       Tot       0.6780
    Quadrupole Moments (Debye-Ang)
        XX    -104.9088     XY      -2.5016     YY    -103.6159
        XZ       0.7104     YZ      -0.3618     ZZ    -105.3288
    Octopole Moments (Debye-Ang^2)
       XXX     -45.4553    XXY      18.6237    XYY       6.5052
       YYY      43.2371    XXZ     -14.8225    XYZ      -3.3509
       YYZ      -0.5877    XZZ     -11.6923    YZZ       1.9570
       ZZZ      -9.6818
    Hexadecapole Moments (Debye-Ang^3)
      XXXX   -4596.5390   XXXY     -24.4001   XXYY   -1233.3888
      XYYY     -51.6082   YYYY   -1801.1739   XXXZ      65.3423
      XXYZ      -2.3684   XYYZ      -6.3342   YYYZ       4.2079
      XXZZ    -876.2348   XYZZ       0.0582   YYZZ    -387.5979
      XZZZ      16.9815   YZZZ       8.3146   ZZZZ    -421.7853
 -----------------------------------------------------------------
 Calculating analytic gradient of the SCF energy
 Gradient of SCF Energy
            1           2           3           4           5           6
    1  -0.0006495   0.0003999   0.0012319  -0.0034934   0.0006271   0.0007187
    2   0.0005969  -0.0005105   0.0004659  -0.0000877  -0.0011128   0.0000319
    3   0.0030725  -0.0010937  -0.0035573   0.0105351  -0.0017311  -0.0017994
            7           8           9          10          11          12
    1   0.0000505   0.0008378   0.0003842  -0.0002112  -0.0001095   0.0010018
    2   0.0001734  -0.0018235   0.0000760   0.0000144  -0.0000100   0.0013949
    3   0.0003432   0.0001510  -0.0001096   0.0002583  -0.0037987  -0.0027882
           13          14          15          16          17          18
    1  -0.0000396  -0.0022461   0.0023112  -0.0000429  -0.0000066   0.0000307
    2  -0.0000068  -0.0015666   0.0012829   0.0001059   0.0000137   0.0000087
    3  -0.0000369  -0.0034283   0.0022498  -0.0000130   0.0000591  -0.0000059
           19          20          21          22          23          24
    1   0.0000127   0.0000049   0.0000187   0.0000249   0.0000040   0.0000154
    2   0.0000151  -0.0000210   0.0000308   0.0000532   0.0000068   0.0000037
    3  -0.0000663  -0.0000282  -0.0000085   0.0000073   0.0000317   0.0000045
           25          26          27          28          29          30
    1  -0.0007614   0.0002319  -0.0003887   0.0000474   0.0000448  -0.0000380
    2   0.0006878   0.0000841   0.0000946   0.0000086   0.0000049   0.0000641
    3   0.0005055  -0.0000155   0.0011654   0.0000727   0.0000263  -0.0000315
           31          32          33          34          35          36
    1  -0.0000142   0.0000417  -0.0000105  -0.0000063  -0.0000089  -0.0000132
    2  -0.0000166  -0.0000202  -0.0000253  -0.0000213   0.0000164  -0.0000126
    3   0.0000045  -0.0000111   0.0000184   0.0000048   0.0000027   0.0000103
 Max gradient component =       1.054E-02
 RMS gradient           =       1.433E-03
 Gradient time:  CPU 162.30 s  wall 11.08 s
 Geometry Optimization Parameters
   NAtoms,    NIC,     NZ,  NCons,   NDum,   NFix, NCnnct, MaxDiis
       36     238       0       4       0       0       0       0

 Cartesian Hessian Update
 Hessian updated using BFGS update


** CONSTRAINED OPTIMIZATION IN DELOCALIZED INTERNAL COORDINATES **
   Searching for a Minimum

   Optimization Cycle:   3

                       Coordinates (Angstroms)
     ATOM                X               Y               Z
      1  C        -0.6329582092   -1.7319073643    0.3282158176
      2  C        -2.0140628422   -1.2152837964    0.0729033098
      3  C        -2.2338678749    0.2329194718   -0.0706938812
      4  C        -1.2105381708    1.1151811734    0.1858338516
      5  C         0.1470197293    0.6063914366    0.4623082123
      6  C         0.3959468899   -0.8702576635    0.4830267788
      7  O        -2.9480552423   -2.0205734769   -0.0195521214
      8  O         1.0855260612    1.3749765416    0.6962400665
      9  O        -3.4256234245    0.7817431641   -0.3954129169
     10  C        -4.6057102417    0.0033150890   -0.6951739600
     11  O        -1.5085821329    2.4239341305    0.0072429763
     12  C        -0.5744400665    3.5077940346    0.2231358042
     13  C        -0.5388249616   -3.2300356409    0.3695166450
     14  C         1.8258119881   -1.2650799094    0.7695138163
     15  C         2.7808704490   -0.9890291972   -0.3663582676
     16  C         3.8256072733   -0.1492504571   -0.3750415666
     17  C         4.2400444533    0.7239603348    0.7767927049
     18  C         4.6825528566   -0.0159221629   -1.6086267905
     19  H         0.4950678162   -3.5745690479    0.3941425713
     20  H        -1.0406989514   -3.6612430907   -0.5018421251
     21  H        -1.0647091408   -3.6213806565    1.2482444992
     22  H        -4.4265672443   -0.6841074474   -1.5239674980
     23  H        -5.3424562888    0.7582069282   -0.9759328065
     24  H        -4.9402183520   -0.5573689395    0.1787132088
     25  H         0.1615855179    3.5481228838   -0.5820817736
     26  H        -0.0633558852    3.4158509183    1.1813176821
     27  H        -1.2085012690    4.3967710839    0.2104379833
     28  H         1.8596899744   -2.3301327105    1.0188193071
     29  H         2.1486176808   -0.7169257849    1.6602109665
     30  H         2.5781884937   -1.5549838231   -1.2772993532
     31  H         3.6227230714    0.5852935000    1.6650838405
     32  H         4.1688929825    1.7806583308    0.4883021089
     33  H         5.2887986591    0.5331493013    1.0414375668
     34  H         4.6660523656    1.0171405178   -1.9819594095
     35  H         4.3422564756   -0.6787083302   -2.4094596135
     36  H         5.7314174980   -0.2523235830   -1.3841731857
   Point Group: c1    Number of degrees of freedom:   102


   Energy is   -845.644291073

              Constraints and their Current Values
                                        Value     Constraint
   Angle:           6  14  15          114.100      114.100
   Dihedral:        1   6  14  15      111.800      111.800
   Dihedral:        4   3   9  10      180.000      180.000
   Dihedral:        3   4  11  12      179.991      180.000
 Hessian updated using BFGS update

   Using Lagrange Multiplier Algorithm


 84 Hessian modes will be used to form the next step
  Hessian Eigenvalues:
    -0.988720    0.030332    0.045000    0.045000    0.045000    0.045001
     0.045001    0.045001    0.045002    0.045008    0.045023    0.045036
     0.045049    0.045135    0.045610    0.064973    0.091863    0.091961
     0.092641    0.092985    0.094529    0.095319    0.095463    0.113599
     0.114146    0.116585    0.118149    0.119644    0.134606    0.158878
     0.160000    0.160003    0.160571    0.220021    0.248767    0.249475
     0.249619    0.249710    0.249833    0.249871    0.249940    0.249990
     0.249994    0.249997    0.249999    0.250023    0.312846    0.314094
     0.315612    0.316782    0.319877    0.321998    0.322956    0.338449
     0.338645    0.338656    0.339406    0.340396    0.340959    0.342969
     0.343113    0.343372    0.343786    0.344513    0.346132    0.346359
     0.346417    0.346520    0.346976    0.347046    0.347417    0.348044
     0.349527    0.384962    0.388776    0.483660    0.510973    0.535698
     0.547399    0.571299    0.747465    0.884157    0.889836    1.019675

 Minimum search - taking P-RFO step
 Searching for Lamda that maximizes along the constraint modes only
 Value Taken    Lamda =   0.00000007
 Searching for Lamda that minimizes along all other modes
 Value Taken    Lamda =  -0.00060130
 Step Taken.  Stepsize is  0.122150

                             Maximum     Tolerance    Cnvgd?
         Gradient            0.005380       0.000300      NO
         Displacement        0.060472       0.001200      NO
         Energy change     -0.000013       0.000001      NO


 New Cartesian Coordinates Obtained by Inverse Iteration

 Displacement from previous Coordinates is:  0.141189
 Adding empirical dispersion correction 
 ----------------------------------------------------------------
 Doing -D3(BJ) with
 s6  =   1.00000
 s8  =   1.94350
 a1  =   0.45350
 a2  =   4.47520
 ----------------------------------------------------------------
 -D3 energy without 3body term =     -0.0510550690 hartrees
 ----------------------------------------------------------------
             Standard Nuclear Orientation (Angstroms)
    I     Atom           X                Y                Z
 ----------------------------------------------------------------
    1      C      -0.6321967670    -1.7272426594     0.3233990185
    2      C      -2.0153516865    -1.2134026774     0.0701234068
    3      C      -2.2363780127     0.2328180721    -0.0811771988
    4      C      -1.2115162574     1.1163028862     0.1668675361
    5      C       0.1448868716     0.6137290501     0.4520325109
    6      C       0.3959886765    -0.8632960486     0.4759843922
    7      O      -2.9471344017    -2.0213228280    -0.0239690108
    8      O       1.0770486150     1.3879347757     0.6937425775
    9      O      -3.4297166701     0.7797613869    -0.4051214226
   10      C      -4.6108581938    -0.0000711377    -0.6963039513
   11      O      -1.5188162575     2.4262884516     0.0286305815
   12      C      -0.5813918563     3.5054943932     0.2445207166
   13      C      -0.5364388055    -3.2251185546     0.3688763700
   14      C       1.8249341140    -1.2577255165     0.7690530518
   15      C       2.7836056474    -0.9890371695    -0.3655629521
   16      C       3.8307198076    -0.1522824533    -0.3762448942
   17      C       4.2450724630     0.7259351308     0.7716687953
   18      C       4.6908672175    -0.0279729424    -1.6085331456
   19      H       0.4976401542    -3.5689952810     0.3938624188
   20      H      -1.0389124172    -3.6587718481    -0.5008741433
   21      H      -1.0615139289    -3.6146038041     1.2489534131
   22      H      -4.4347164328    -0.6929994574    -1.5212656392
   23      H      -5.3479925861     0.7533826381    -0.9800379665
   24      H      -4.9432017681    -0.5548376884     0.1820828194
   25      H       0.1512168675     3.5333466859    -0.5668138782
   26      H      -0.0655749351     3.4177155832     1.1987031971
   27      H      -1.2099784293     4.3978652672     0.2221163861
   28      H       1.8564264100    -2.3219176462     1.0222951324
   29      H       2.1453353287    -0.7064792003     1.6586530379
   30      H       2.5824203630    -1.5598995935    -1.2737812380
   31      H       3.6257965651     0.5935055602     1.6595158231
   32      H       4.1768998541     1.7813085257     0.4776361025
   33      H       5.2928644209     0.5339620999     1.0392860319
   34      H       4.6782285581     1.0031710028    -1.9874067469
   35      H       4.3506407010    -0.6941871578    -2.4065753018
   36      H       5.7385967087    -0.2660320872    -1.3804713816
 ----------------------------------------------------------------
 Molecular Point Group                 C1    NOp =  1
 Largest Abelian Subgroup              C1    NOp =  1
 Nuclear Repulsion Energy =        1344.06103697 hartrees
 There are       67 alpha and       67 beta electrons
 Applying Cartesian multipole field
    Component          Value
    ---------          -----
     (2,0,0)        1.00000E-12
     (0,2,0)        2.00000E-11
     (0,0,2)       -3.00000E-11
 Nucleus-field energy     =     0.0000000247 hartrees
 Requested basis set is def2-ma-TZVP
 There are 292 shells and 696 basis functions
 A cutoff of  1.0D-12 yielded  32183 shell pairs
 There are    176571 function pairs (    222458 Cartesian)
 Smallest overlap matrix eigenvalue = 4.91E-06
 Guess MOs from SCF MO coefficient file

 -----------------------------------------------------------------------
  General SCF calculation program by
  Eric Jon Sundstrom, Paul Horn, Yuezhi Mao, Dmitri Zuev, Alec White,
  David Stuck, Shaama M.S., Shane Yost, Joonho Lee, David Small,
  Daniel Levine, Susi Lehtola, Hugh Burton, Evgeny Epifanovsky,
  Bang C. Huynh
 -----------------------------------------------------------------------
 Exchange:  TPSS      Correlation:  TPSS
 Using SG-2 standard quadrature grid
 Dispersion:   Grimme D3
 A restricted SCF calculation will be
 performed using DIIS
 SCF converges when DIIS error is below 1.0e-08
 ---------------------------------------
  Cycle       Energy         DIIS error
 ---------------------------------------
    1    -845.6440625268      9.19e-05  
    2    -845.6447258239      1.65e-05  
    3    -845.6446882909      3.18e-05  
    4    -845.6447338623      9.50e-06  
    5    -845.6447336690      8.96e-06  
    6    -845.6447392183      1.59e-06  
    7    -845.6447393440      5.04e-07  
    8    -845.6447393552      1.84e-07  
    9    -845.6447393566      7.53e-08  
   10    -845.6447393568      3.02e-08  
   11    -845.6447393568      1.23e-08  
   12    -845.6447393571      2.15e-09  Convergence criterion met
 ---------------------------------------
 SCF time:   CPU 1661.64s  wall 117.00s 
 SCF   energy =  -845.64473936
 Total energy =  -845.64473936

 --------------------------------------------------------------

                    Orbital Energies (a.u.)
 --------------------------------------------------------------

 Alpha MOs
 -- Occupied --
-18.9221 -18.9221 -18.8791 -18.8787 -10.0792 -10.0786 -10.0566 -10.0560
-10.0377 -10.0371 -10.0160 -10.0146  -9.9970  -9.9916  -9.9876  -9.9791
 -9.9766  -9.9756  -1.0145  -0.9945  -0.9717  -0.9677  -0.7935  -0.7567
 -0.7391  -0.6979  -0.6704  -0.6682  -0.6368  -0.6301  -0.6096  -0.5882
 -0.5367  -0.5341  -0.4935  -0.4737  -0.4676  -0.4650  -0.4376  -0.4262
 -0.4177  -0.4105  -0.4057  -0.4011  -0.3991  -0.3922  -0.3886  -0.3845
 -0.3705  -0.3663  -0.3555  -0.3511  -0.3447  -0.3420  -0.3385  -0.3325
 -0.3250  -0.3198  -0.3155  -0.2979  -0.2965  -0.2874  -0.2491  -0.2263
 -0.2227  -0.2046  -0.1874
 -- Virtual --
[...]
    2   0.0000004  -0.0004174   0.0007038  -0.0000736   0.0000007  -0.0000099
    3  -0.0000181  -0.0041384   0.0023651   0.0000352   0.0000078   0.0000124
           19          20          21          22          23          24
    1  -0.0000039  -0.0000183   0.0000017   0.0000084   0.0000036  -0.0000020
    2   0.0000009   0.0000001   0.0000046   0.0000128   0.0000157   0.0000155
    3  -0.0000326  -0.0000086  -0.0000078  -0.0000098  -0.0000085  -0.0000041
           25          26          27          28          29          30
    1  -0.0000121  -0.0000013   0.0000030   0.0000118  -0.0000175  -0.0000272
    2   0.0000054   0.0000066   0.0000192  -0.0000047   0.0000246   0.0000344
    3   0.0000431   0.0000539   0.0000559   0.0000280  -0.0000215  -0.0000192
           31          32          33          34          35          36
    1   0.0000141  -0.0000131   0.0000035   0.0000038   0.0000039   0.0000015
    2  -0.0000299  -0.0000136  -0.0000044  -0.0000036  -0.0000018  -0.0000055
    3   0.0000157   0.0000180   0.0000026   0.0000097   0.0000060   0.0000095
 Max gradient component =       4.138E-03
 RMS gradient           =       6.350E-04
 Gradient time:  CPU 161.78 s  wall 10.92 s
 Geometry Optimization Parameters
   NAtoms,    NIC,     NZ,  NCons,   NDum,   NFix, NCnnct, MaxDiis
       36     238       0       4       0       0       0       0

 Cartesian Hessian Update
 Hessian updated using BFGS update


** CONSTRAINED OPTIMIZATION IN DELOCALIZED INTERNAL COORDINATES **
   Searching for a Minimum

   Optimization Cycle:  15

                       Coordinates (Angstroms)
     ATOM                X               Y               Z
      1  C        -0.6362394907   -1.7459264194    0.2908552699
      2  C        -2.0191610506   -1.2225928656    0.0501291932
      3  C        -2.2353953636    0.2264849436   -0.0846367054
      4  C        -1.1860420282    1.0981063794    0.0907587672
      5  C         0.1360554692    0.5870284084    0.4906715974
      6  C         0.3916730844   -0.8882637582    0.4722306241
      7  O        -2.9550925597   -2.0257887455   -0.0429098281
      8  O         1.0290149281    1.3532350185    0.8684051257
      9  O        -3.4343249954    0.7858606699   -0.3640003099
     10  C        -4.6397924077    0.0182808361   -0.5773566186
     11  O        -1.4731555733    2.4126272727   -0.0381214219
     12  C        -0.4850010482    3.4559408054    0.1154549816
     13  C        -0.5426731565   -3.2444309683    0.3006904537
     14  C         1.8211708065   -1.2819511753    0.7580125136
     15  C         2.7810844190   -0.9753850359   -0.3653321770
     16  C         3.8111234127   -0.1173289248   -0.3537715975
     17  C         4.2050187824    0.7429109557    0.8150991299
     18  C         4.6754241218    0.0479909862   -1.5784690599
     19  H         0.4910653840   -3.5893340025    0.3293861990
     20  H        -1.0344159683   -3.6561778370   -0.5859458350
     21  H        -1.0786960765   -3.6553677998    1.1640288636
     22  H        -4.5247475375   -0.6748918268   -1.4124491428
     23  H        -5.3868904484    0.7794918958   -0.8096522161
     24  H        -4.9194447028   -0.5349753524    0.3205157958
     25  H         0.3691179719    3.2927894885   -0.5446506749
     26  H        -0.1409050559    3.5197049602    1.1486544625
     27  H        -1.0236064843    4.3612035332   -0.1706329050
     28  H         1.8602372011   -2.3522042277    0.9837280739
     29  H         2.1328743527   -0.7503582219    1.6624493679
     30  H         2.5948659429   -1.5308340334   -1.2861590091
     31  H         3.5867850635    0.5778480570    1.6979756538
     32  H         4.1167449137    1.8035612905    0.5460795848
     33  H         5.2562552524    0.5661361222    1.0796142350
     34  H         4.6479187954    1.0867283865   -1.9350518869
     35  H         4.3510425040   -0.6063392392   -2.3927355192
     36  H         5.7256114799   -0.1774538177   -1.3490005364
   Point Group: c1    Number of degrees of freedom:   102


   Energy is   -845.645611065

              Constraints and their Current Values
                                        Value     Constraint
   Angle:           6  14  15          114.100      114.100
   Dihedral:        1   6  14  15      111.800      111.800
   Dihedral:        4   3   9  10      180.000      180.000
   Dihedral:        3   4  11  12      180.000      180.000
 Hessian updated using BFGS update

 98 Hessian modes will be used to form the next step
  Hessian Eigenvalues:
     0.002948    0.007173    0.011136    0.023533    0.045000    0.045000
     0.045000    0.045001    0.045002    0.045005    0.045007    0.045031
     0.045049    0.045053    0.045259    0.045312    0.047465    0.048661
     0.066161    0.091863    0.091960    0.092659    0.092984    0.094532
     0.095320    0.095545    0.114059    0.114545    0.116669    0.119434
     0.120606    0.134715    0.159674    0.159965    0.159994    0.159999
     0.160000    0.160000    0.160000    0.160001    0.160008    0.160057
     0.160070    0.160104    0.160450    0.160682    0.160820    0.175928
     0.222529    0.249358    0.249502    0.249593    0.249796    0.249903
     0.249986    0.250017    0.250109    0.250805    0.252586    0.297404
     0.313293    0.315030    0.315988    0.318212    0.320336    0.322377
     0.329412    0.336635    0.338451    0.338646    0.338687    0.339415
     0.340960    0.342997    0.343251    0.343502    0.343788    0.345464
     0.346072    0.346340    0.346427    0.346543    0.346786    0.347186
     0.347710    0.348466    0.357420    0.385385    0.386480    0.483605
     0.501393    0.508273    0.551026    0.577671    0.662492    0.689461
     0.885236    0.889784

 Minimum search - taking simple RFO step
 Searching for Lamda that Minimizes Along All modes
 Value Taken    Lamda =  -0.00000114
 Step Taken.  Stepsize is  0.011716

                             Maximum     Tolerance    Cnvgd?
         Gradient           0.000112      0.000300     YES
         Displacement       0.003494      0.001200      NO
         Energy change     -0.000001      0.000001     YES

 Final energy is   -845.64561106486531     


 ******************************
 **  OPTIMIZATION CONVERGED  **
 ******************************

                       Coordinates (Angstroms)
     ATOM                X               Y               Z
      1  C        -0.6362394907   -1.7459264194    0.2908552699
      2  C        -2.0191610506   -1.2225928656    0.0501291932
      3  C        -2.2353953636    0.2264849436   -0.0846367054
      4  C        -1.1860420282    1.0981063794    0.0907587672
      5  C         0.1360554692    0.5870284084    0.4906715974
      6  C         0.3916730844   -0.8882637582    0.4722306241
      7  O        -2.9550925597   -2.0257887455   -0.0429098281
      8  O         1.0290149281    1.3532350185    0.8684051257
      9  O        -3.4343249954    0.7858606699   -0.3640003099
     10  C        -4.6397924077    0.0182808361   -0.5773566186
     11  O        -1.4731555733    2.4126272727   -0.0381214219
     12  C        -0.4850010482    3.4559408054    0.1154549816
     13  C        -0.5426731565   -3.2444309683    0.3006904537
     14  C         1.8211708065   -1.2819511753    0.7580125136
     15  C         2.7810844190   -0.9753850359   -0.3653321770
     16  C         3.8111234127   -0.1173289248   -0.3537715975
     17  C         4.2050187824    0.7429109557    0.8150991299
     18  C         4.6754241218    0.0479909862   -1.5784690599
     19  H         0.4910653840   -3.5893340025    0.3293861990
     20  H        -1.0344159683   -3.6561778370   -0.5859458350
     21  H        -1.0786960765   -3.6553677998    1.1640288636
     22  H        -4.5247475375   -0.6748918268   -1.4124491428
     23  H        -5.3868904484    0.7794918958   -0.8096522161
     24  H        -4.9194447028   -0.5349753524    0.3205157958
     25  H         0.3691179719    3.2927894885   -0.5446506749
     26  H        -0.1409050559    3.5197049602    1.1486544625
     27  H        -1.0236064843    4.3612035332   -0.1706329050
     28  H         1.8602372011   -2.3522042277    0.9837280739
     29  H         2.1328743527   -0.7503582219    1.6624493679
     30  H         2.5948659429   -1.5308340334   -1.2861590091
     31  H         3.5867850635    0.5778480570    1.6979756538
     32  H         4.1167449137    1.8035612905    0.5460795848
     33  H         5.2562552524    0.5661361222    1.0796142350
     34  H         4.6479187954    1.0867283865   -1.9350518869
     35  H         4.3510425040   -0.6063392392   -2.3927355192
     36  H         5.7256114799   -0.1774538177   -1.3490005364

Z-matrix Print:
$molecule
0 1
O 
C  1 1.235772
C  2 1.472777 1 121.098142
O  3 1.351669 2 123.645448 1 7.635910 0
C  3 1.375365 2 119.974540 1 -167.861672 0
O  5 1.352175 3 116.146868 2 175.727779 0
C  6 1.444940 5 123.399062 3 180.000000 0
H  7 1.091088 6 111.203576 5 63.143494 0
H  7 1.091377 6 111.249979 5 -59.266981 0
H  7 1.091586 6 103.412828 5 -178.034029 0
C  4 1.445178 3 123.141862 2 4.347887 0
H  11 1.090857 4 111.010138 3 -67.709670 0
H  11 1.091532 4 103.502273 3 173.358324 0
H  11 1.091731 4 111.272287 3 54.580299 0
C  5 1.471307 3 120.023251 2 -3.571925 0
O  15 1.236830 5 121.431859 3 176.723386 0
C  2 1.497387 1 119.425094 3 -178.444998 0
C  17 1.350958 2 119.818393 1 168.371677 0
C  18 1.501455 17 125.825083 2 -177.548424 0
H  19 1.090136 18 112.026113 17 -8.330912 0
H  19 1.094290 18 110.012076 17 -129.956758 0
H  19 1.096149 18 110.416408 17 113.266101 0
C  17 1.510008 2 114.591643 1 -7.777275 0
H  23 1.094420 17 107.421064 2 49.390596 0
H  23 1.094493 17 109.133204 2 165.203351 0
C  23 1.509079 17 114.099997 2 -72.302667 0
H  26 1.091386 23 114.590859 17 -64.415968 0
C  26 1.340662 23 127.757031 17 115.621545 0
C  28 1.503804 26 125.034410 23 -0.878566 0
H  29 1.090381 28 113.219078 26 2.354882 0
H  29 1.097790 28 109.947062 26 -117.771627 0
H  29 1.098324 28 110.232381 26 124.567146 0
C  28 1.508055 26 120.231393 23 179.421932 0
H  33 1.093801 28 111.654810 26 -0.814704 0
H  33 1.098351 28 110.843959 26 -121.833417 0
H  33 1.098582 28 110.664784 26 120.101215 0
$end


 --------------------------------------------------------------

                    Orbital Energies (a.u.)
 --------------------------------------------------------------

 Alpha MOs
 -- Occupied --
-18.9228 -18.9221 -18.8791 -18.8790 -10.0792 -10.0787 -10.0566 -10.0561
-10.0377 -10.0370 -10.0160 -10.0144  -9.9970  -9.9916  -9.9889  -9.9801
 -9.9776  -9.9761  -1.0150  -0.9952  -0.9718  -0.9679  -0.7938  -0.7574
 -0.7394  -0.6984  -0.6705  -0.6679  -0.6375  -0.6305  -0.6097  -0.5888
 -0.5369  -0.5342  -0.4937  -0.4742  -0.4679  -0.4652  -0.4377  -0.4266
 -0.4179  -0.4111  -0.4057  -0.4019  -0.3991  -0.3925  -0.3889  -0.3851
 -0.3698  -0.3662  -0.3556  -0.3519  -0.3453  -0.3420  -0.3387  -0.3332
 -0.3255  -0.3201  -0.3157  -0.2990  -0.2973  -0.2878  -0.2490  -0.2261
 -0.2225  -0.2066  -0.1875
 -- Virtual --
 -0.1365  -0.0285  -0.0158  -0.0091  -0.0034   0.0050   0.0115   0.0185
  0.0213   0.0268   0.0397   0.0466   0.0480   0.0535   0.0568   0.0615
  0.0649   0.0697   0.0786   0.0845   0.0889   0.0942   0.1028   0.1042
  0.1080   0.1126   0.1153   0.1182   0.1207   0.1275   0.1301   0.1325
  0.1427   0.1456   0.1473   0.1537   0.1567   0.1597   0.1622   0.1694
  0.1702   0.1743   0.1786   0.1843   0.1896   0.1941   0.2007   0.2056
  0.2081   0.2151   0.2220   0.2230   0.2308   0.2330   0.2434   0.2484
  0.2501   0.2529   0.2578   0.2599   0.2633   0.2688   0.2763   0.2809
  0.2837   0.2900   0.2975   0.3001   0.3025   0.3080   0.3124   0.3198
  0.3238   0.3242   0.3333   0.3362   0.3430   0.3543   0.3581   0.3586
  0.3694   0.3732   0.3768   0.3818   0.3835   0.3920   0.3949   0.3968
  0.4004   0.4084   0.4110   0.4149   0.4161   0.4216   0.4253   0.4277
  0.4332   0.4360   0.4393   0.4441   0.4456   0.4491   0.4551   0.4564
  0.4586   0.4619   0.4663   0.4711   0.4750   0.4767   0.4863   0.4887
  0.4934   0.5004   0.5040   0.5072   0.5149   0.5170   0.5235   0.5361
  0.5403   0.5449   0.5549   0.5608   0.5690   0.5697   0.5740   0.5821
  0.5894   0.5933   0.6013   0.6095   0.6167   0.6260   0.6334   0.6365
  0.6425   0.6516   0.6544   0.6582   0.6641   0.6716   0.6750   0.6812
  0.6867   0.7008   0.7059   0.7116   0.7166   0.7210   0.7265   0.7324
  0.7409   0.7444   0.7673   0.7702   0.7788   0.7869   0.7998   0.8027
  0.8121   0.8198   0.8253   0.8372   0.8450   0.8535   0.8565   0.8752
  0.8925   0.8988   0.9050   0.9122   0.9326   0.9407   0.9538   0.9668
  0.9759   0.9824   0.9887   1.0024   1.0095   1.0158   1.0227   1.0267
  1.0368   1.0397   1.0453   1.0628   1.0697   1.0820   1.0907   1.0986
  1.1052   1.1058   1.1118   1.1154   1.1177   1.1320   1.1425   1.1517
  1.1645   1.1758   1.1809   1.1877   1.1934   1.1957   1.2119   1.2319
  1.2394   1.2448   1.2581   1.2744   1.2821   1.2960   1.3041   1.3198
  1.3414   1.3473   1.3629   1.3666   1.3867   1.4022   1.4187   1.4369
  1.4388   1.4477   1.4604   1.4684   1.4737   1.4793   1.4878   1.4932
  1.5025   1.5100   1.5153   1.5219   1.5271   1.5361   1.5410   1.5468
  1.5581   1.5601   1.5670   1.5702   1.5730   1.5758   1.5770   1.5825
  1.5899   1.5976   1.6087   1.6218   1.6254   1.6320   1.6358   1.6455
  1.6489   1.6585   1.6709   1.6722   1.6912   1.7013   1.7061   1.7280
  1.7346   1.7576   1.7593   1.7812   1.7994   1.8034   1.8189   1.8393
  1.8497   1.8519   1.8566   1.8763   1.8813   1.8906   1.8953   1.9079
  1.9183   1.9255   1.9497   1.9530   1.9557   1.9701   1.9726   1.9827
  1.9898   2.0028   2.0203   2.0355   2.0417   2.0472   2.0545   2.0631
  2.0750   2.0832   2.0967   2.0996   2.1088   2.1194   2.1375   2.1480
  2.1669   2.1795   2.1909   2.2024   2.2045   2.2158   2.2264   2.2406
  2.2506   2.2659   2.2804   2.2839   2.2961   2.3027   2.3173   2.3252
  2.3323   2.3442   2.3474   2.3514   2.3659   2.3716   2.3764   2.3775
  2.3853   2.3884   2.3980   2.4166   2.4233   2.4404   2.4493   2.4535
  2.4613   2.4719   2.4840   2.4917   2.4947   2.5014   2.5061   2.5274
  2.5282   2.5329   2.5373   2.5453   2.5514   2.5555   2.5651   2.5741
  2.5870   2.5905   2.6034   2.6099   2.6256   2.6287   2.6466   2.6540
  2.6664   2.6819   2.6834   2.6949   2.7067   2.7168   2.7329   2.7358
  2.7419   2.7492   2.7574   2.7664   2.7743   2.7868   2.7948   2.8050
  2.8115   2.8173   2.8357   2.8509   2.8524   2.8658   2.8771   2.8846
  2.8953   2.9111   2.9259   2.9276   2.9480   2.9511   2.9591   2.9728
  2.9790   2.9882   2.9912   3.0075   3.0099   3.0169   3.0227   3.0347
  3.0408   3.0480   3.0557   3.0648   3.0700   3.0859   3.0926   3.1085
  3.1132   3.1336   3.1406   3.1475   3.1509   3.1606   3.1671   3.1692
  3.1879   3.1914   3.1955   3.2053   3.2082   3.2162   3.2278   3.2299
  3.2307   3.2460   3.2520   3.2587   3.2641   3.2756   3.2817   3.2920
  3.2946   3.2989   3.3114   3.3146   3.3181   3.3335   3.3457   3.3501
  3.3530   3.3574   3.3640   3.3681   3.3699   3.3797   3.3835   3.3858
  3.3952   3.4037   3.4088   3.4200   3.4242   3.4330   3.4465   3.4480
  3.4527   3.4666   3.4817   3.4937   3.4988   3.5046   3.5218   3.5305
  3.5369   3.5452   3.5551   3.5582   3.5700   3.5723   3.5819   3.5861
  3.6127   3.6209   3.6362   3.6528   3.6610   3.6800   3.6832   3.7030
  3.7301   3.7452   3.7471   3.7708   3.7831   3.7847   3.7978   3.8197
  3.8444   3.8658   3.8725   3.8780   3.8920   3.8989   3.9215   3.9328
  3.9600   3.9676   3.9995   4.0111   4.0276   4.0394   4.0547   4.0715
  4.0778   4.0895   4.1319   4.1387   4.1551   4.1776   4.1804   4.2013
  4.2298   4.2352   4.2597   4.2737   4.3016   4.3127   4.3346   4.3444
  4.3501   4.3839   4.4021   4.4078   4.4194   4.4373   4.4575   4.4746
  4.4847   4.4969   4.5021   4.5138   4.5343   4.5372   4.5556   4.5713
  4.5781   4.5962   4.6096   4.6170   4.6321   4.6615   4.6790   4.7085
  4.7561   4.7731   4.8144   4.8460   4.8602   4.9088   4.9349   4.9619
  5.0062   5.0226   5.0893   5.1067   5.1424   5.1791   5.1878   5.2142
  5.2300   5.2408   5.2509   5.3054   5.3248   5.3492   5.3749   5.4450
  5.5016   5.5235   5.5606   5.5656   5.6052   5.6335   5.6819   5.7568
  5.8430   5.8581   5.8666   5.9440   6.0438   6.0601   6.1490   6.1635
  6.2303   6.3175   6.3411   6.3843   6.4289   6.4345   6.5249   6.5564
  6.5840   6.5897   6.6149   6.7137   6.7704   6.7788   6.8209   6.8418
  6.8837   6.9043   6.9649   7.0636   7.1198   7.1294   7.1843   7.2151
  7.3007   7.4019   7.5574  22.3041  22.3131  22.3660  22.3735  22.3922
 22.4471  22.5103  22.5968  22.7630  22.9977  23.0739  23.1497  23.1603
 23.7033  43.9849  44.1172  44.2163  44.4403
 --------------------------------------------------------------

          Ground-State Mulliken Net Atomic Charges

     Atom                 Charge (a.u.)
  ----------------------------------------
      1 C                    -0.017480
      2 C                     0.298794
      3 C                     0.098570
      4 C                     0.101326
      5 C                     0.301476
      6 C                     0.084613
      7 O                    -0.430678
      8 O                    -0.436635
      9 O                    -0.316714
     10 C                    -0.166181
     11 O                    -0.318950
     12 C                    -0.168675
     13 C                    -0.374828
     14 C                    -0.255621
     15 C                    -0.207033
     16 C                     0.095877
     17 C                    -0.337829
     18 C                    -0.385045
     19 H                     0.124364
     20 H                     0.155367
     21 H                     0.148540
     22 H                     0.150833
     23 H                     0.141718
     24 H                     0.152519
     25 H                     0.147574
     26 H                     0.158497
     27 H                     0.142012
     28 H                     0.120811
     29 H                     0.136536
     30 H                     0.100474
     31 H                     0.129295
     32 H                     0.124812
     33 H                     0.124346
     34 H                     0.127335
     35 H                     0.121070
     36 H                     0.128911
  ----------------------------------------
  Sum of atomic charges =     0.000000

 -----------------------------------------------------------------
                    Cartesian Multipole Moments
 -----------------------------------------------------------------
    Charge (ESU x 10^10)
                -0.0000
    Dipole Moment (Debye)
         X       0.7781      Y       0.1189      Z      -0.3483
       Tot       0.8608
    Quadrupole Moments (Debye-Ang)
        XX    -104.3639     XY      -2.1835     YY    -103.8520
        XZ      -0.0164     YZ      -1.0994     ZZ    -105.9811
    Octopole Moments (Debye-Ang^2)
       XXX     -45.5421    XXY      19.2608    XYY       8.6222
       YYY      42.1139    XXZ     -12.5302    XYZ      -3.0399
       YYZ      -2.8069    XZZ     -11.4765    YZZ       1.3924
       ZZZ      -9.7753
    Hexadecapole Moments (Debye-Ang^3)
      XXXX   -4566.3849   XXXY     -44.1608   XXYY   -1230.3857
      XYYY     -64.5608   YYYY   -1796.0912   XXXZ      52.3694
      XXYZ      -2.3048   XYYZ      -5.4514   YYYZ      -0.2677
      XXZZ    -875.0669   XYZZ      -7.4051   YYZZ    -385.8673
      XZZZ      11.1457   YZZZ      11.8602   ZZZZ    -415.5716
 -----------------------------------------------------------------
 Total job time:  1905.01s(wall), 26989.03s(cpu) 
 Thu Mar  6 03:39:15 2025

        *************************************************************
        *                                                           *
        *  Thank you very much for using Q-Chem.  Have a nice day.  *
        *                                                           *
        *************************************************************


