                  Welcome to Q-Chem
     A Quantum Leap Into The Future Of Chemistry


 Q-Chem 6.2 (devel), Q-Chem, Inc., Pleasanton, CA (2024)

 E. Epifanovsky,  A. T. B. Gilbert,  Xintian Feng,  Joonho Lee,  Yuezhi Mao,  
 N. Mardirossian,  P. Pokhilko,  A. White,  M. Wormit,  M. P. Coons,  
 A. L. Dempwolff,  Zhengting Gan,  D. Hait,  P. R. Horn,  L. D. Jacobson,  
 I. Kaliman,  J. Kussmann,  A. W. Lange,  Ka Un Lao,  D. S. Levine,  Jie Liu,  
 S. C. McKenzie,  A. F. Morrison,  K. D. Nanda,  F. Plasser,  D. R. Rehn,  
 M. L. Vidal,  Zhi-Qiang You,  Ying Zhu,  Huseyin Aksu,  B. Alam,  
 B. Albrecht,  A. Aldossary,  E. Alguire,  J. H. Andersen,  
 J. E. Arias-Martinez,  V. Athavale,  D. Barton,  K. Begam,  A. Behn,  
 N. Bellonzi,  Y. A. Bernard,  E. J. Berquist,  H. Burton,  A. Carreras,  
 K. Carter-Fenk,  Mathew Chow,  Romit Chakraborty,  Chandrima Chakravarty,  
 Junhan Chen,  A. D. Chien,  K. D. Closser,  V. Cofer-Shabica,  L. Cunha,  
 S. Dasgupta,  Jia Deng,  Joseph Dickinson,  M. de Wergifosse,  
 M. Diedenhofen,  Hainam Do,  Wenjie Dou,  S. Ehlert,  Po-Tung Fang,  
 S. Fatehi,  Qingguo Feng,  Jonathan Fetherolf,  T. Friedhoff,  
 Thomas Froitzheim,  Sarai Folkestad,  B. Ganoe,  J. Gayvert,  Qinghui Ge,  
 G. Gidofalvi,  M. Gimferrer,  M. Goldey,  Montgomery Gray,  J. Gomes,  
 C. Gonzalez-Espinoza,  S. Gulania,  A. Gunina,  J. A. Gyamfi,  
 M. W. D. Hanson-Heine,  P. H. P. Harbach,  A. W. Hauser,  M. F. Herbst,  
 M. Hernandez Vera,  M. Hodecker,  Z. C. Holden,  S. Houck,  Xunkun Huang,  
 Kerwin Hui,  B. C. Huynh,  K. Ikeda,  M. Ivanov,  Nayanthara K. Jayadev,  
 Hyunjun Ji,  Zuxin Jin,  Hanjie Jiang,  Subrata Jana,  B. Kaduk,  
 S. Kaehler,  R. Kang,  K. Khistyaev,  Jaehoon Kim,  Yongbin Kim,  
 P. Klunzinger,  Z. Koczor-Benda,  Joong Hoon Koh,  D. Kosenkov,  
 Saikiran Kotaru,  L. Koulias,  T. Kowalczyk,  C. M. Krauter,  K. Kue,  
 A. Kunitsa,  T. Kus,  A. Landau,  K. V. Lawler,  D. Lefrancois,  S. Lehtola,  
 Rain Li,  Shaozhi Li,  Tao E. Li,  Yi-Pei Li,  Jiashu Liang,  M. Liebenthal,  
 Hung-Hsuan Lin,  You-Sheng Lin,  Fenglai Liu,  Kuan-Yu Liu,  Xiao Liu,  
 M. Loipersberger,  A. Luenser,  C. Malbon,  Aniket Mandal,  Manisha,  
 A. Manjanath,  P. Manohar,  E. Mansoor,  S. F. Manzer,  Shan-Ping Mao,  
 A. V. Marenich,  T. Markovich,  S. Mason,  F. Matz,  S. A. Maurer,  
 Samuel May,  Alexandra McIsaac,  P. F. McLaughlin,  M. F. S. J. Menger,  
 J.-M. Mewes,  S. A. Mewes,  P. Morgante,  Mohammad Mostafanejad,  
 Madhubani Mukherjee,  J. W. Mullinax,  Quyen Nguyen,  Avik Kumar Ojha,  
 K. J. Oosterbaan,  Eno Paenurk,  Xiaoliang Pan,  G. Paran,  V. Parravicini,  
 Alexander C. Paul,  Suranjan K. Paul,  F. Pavosevic,  Zheng Pei,  S. Prager,  
 E. I. Proynov,  E. Ramos,  B. Rana,  A. E. Rask,  A. Rettig,  R. M. Richard,  
 F. Rob,  E. Rossomme,  T. Scheele,  M. Scheurer,  M. Schneider,  
 P. E. Schneider,  Tim K. Schramm,  N. Sergueev,  S. M. Sharada,  
 Hengyuan Shen,  W. Skomorowski,  D. W. Small,  C. J. Stein,  
 Alistair J. Sterling,  Yingli Su,  Yu-Chuan Su,  E. J. Sundstrom,  
 J. Talbot,  Zhen Tao,  J. Thirman,  Hung-Yi Tsai,  T. Tsuchimochi,  
 N. M. Tubman,  C. Utku,  S. P. Veccham,  O. Vydrov,  Rahel Weiss,  
 J. Wenzel,  Jonathan Wong,  J. Witte,  H. Wu,  Yanze Wu,  A. Yamada,  
 Chou-Hsun Yang,  Kun Yao,  S. Yeganeh,  S. R. Yost,  Qi Yu,  A. Zech,  
 F. Zeller,  Chongxiao Zhao,  Igor Ying Zhang,  Xing Zhang,  Yu Zhang,  
 D. Zuev,  A. Aspuru-Guzik,  A. T. Bell,  N. A. Besley,  K. B. Bravaya,  
 B. R. Brooks,  D. Casanova,  Jeng-Da Chai,  Hsing-Ta Chen,  S. Coriani,  
 C. J. Cramer,  A. E. DePrince, III,  R. A. DiStasio Jr.,  A. Dreuw,  
 B. D. Dunietz,  T. R. Furlani,  W. A. Goddard III,  S. Grimme,  
 S. Hammes-Schiffer,  T. Head-Gordon,  W. J. Hehre,  Chao-Ping Hsu,  
 T.-C. Jagau,  Yousung Jung,  A. Klamt,  Jing Kong,  D. S. Lambrecht,  
 Xiangyuan Li,  WanZhen Liang,  N. J. Mayhall,  C. W. McCurdy,  J. B. Neaton,  
 T. Neudecker,  C. Ochsenfeld,  J. A. Parkhill,  R. Peverati,  
 V. A. Rassolov,  Haisheng Ren,  Yihan Shao,  L. V. Slipchenko,  
 R. P. Steele,  J. E. Subotnik,  A. J. W. Thom,  A. Tkatchenko,  
 D. G. Truhlar,  T. Van Voorhis,  Fan Wang,  T. A. Wesolowski,  K. B. Whaley,  
 H. L. Woodcock III,  P. M. Zimmerman,  S. Faraji,  P. M. W. Gill,  
 M. Head-Gordon,  J. M. Herbert,  A. I. Krylov

 Contributors to earlier versions of Q-Chem not listed above: 
 R. D. Adamson,  B. Austin,  R. Baer,  J. Baker,  G. J. O. Beran,  
 K. Brandhorst,  S. T. Brown,  E. F. C. Byrd,  Arup K. Chakraborty,  
 G. K. L. Chan,  Chun-Min Chang,  Yunqing Chen,  C.-L. Cheng,  
 Siu Hung Chien,  D. M. Chipman,  D. L. Crittenden,  H. Dachsel,  
 R. J. Doerksen,  A. D. Dutoi,  R. G. Edgar,  J. Fosso-Tande,  
 L. Fusti-Molnar,  D. Ghosh,  A. Ghysels,  A. Golubeva-Zadorozhnaya,  
 J. Gonthier,  M. S. Gordon,  S. R. Gwaltney,  G. Hawkins,  J. E. Herr,  
 A. Heyden,  S. Hirata,  E. G. Hohenstein,  G. Kedziora,  F. J. Keil,  
 C. Kelley,  Jihan Kim,  R. A. King,  R. Z. Khaliullin,  P. P. Korambath,  
 W. Kurlancheek,  A. Laurent,  A. M. Lee,  M. S. Lee,  S. V. Levchenko,  
 Ching Yeh Lin,  D. Liotard,  E. Livshits,  R. C. Lochan,  I. Lotan,  
 L. A. Martinez-Martinez,  P. E. Maslen,  N. Nair,  D. P. O'Neill,  
 D. Neuhauser,  E. Neuscamman,  C. M. Oana,  R. Olivares-Amaya,  R. Olson,  
 T. M. Perrine,  B. Peters,  P. A. Pieniazek,  A. Prociuk,  Y. M. Rhee,  
 J. Ritchie,  M. A. Rohrdanz,  E. Rosta,  N. J. Russ,  H. F. Schaefer III,  
 M. W. Schmidt,  N. E. Schultz,  S. Sharma,  N. Shenvi,  C. D. Sherrill,  
 A. C. Simmonett,  A. Sodt,  T. Stein,  D. Stuck,  K. S. Thanthiriwatte,  
 V. Vanovschi,  L. Vogt,  Tao Wang,  A. Warshel,  M. A. Watson,  
 C. F. Williams,  Q. Wu,  X. Xu,  Jun Yang,  W. Zhang,  Yan Zhao

   Please cite Q-Chem as follows:
  "Software for the frontiers of quantum chemistry:
   An overview of developments in the Q-Chem 5 package"
   J. Chem. Phys. 155, 084801 (2021)
   https://doi.org/10.1063/5.0055522 (open access)

 Q-Chem 6.2.1 for Intel X86 EM64T Linux

 Parts of Q-Chem use Armadillo 9.900.5 (Nocturnal Misbehaviour).
 http://arma.sourceforge.net/

 Q-Chem begins on Fri Mar 21 17:24:13 2025  

 Host: node29
0

     Scratch files written to /temp0/mauro/qchem1153498//
 Processing $rem in /home/mauro/qchem-dyson//config/preferences:
 Processing $rem in /home/mauro/.qchemrc:
 Core orbitals will be frozen

 Checking the input file for inconsistencies... 	...done.

--------------------------------------------------------------
User input:
--------------------------------------------------------------
$molecule
0 1
C
C  1 1.387294
H  2 1.086253 1 115.342803
C  2 1.395594 1 128.665811 3 180.000000 0
H  4 1.083227 2 115.593663 1 -180.000000 0
C  4 1.395186 2 128.913473 1 0.000000 0
H  6 1.084252 4 115.155321 2 180.000000 0
C  6 1.395186 4 129.689357 2 0.000000 0
H  8 1.083227 6 115.492864 4 180.000000 0
C  8 1.395594 6 128.913473 4 -0.000000 0
H  10 1.086253 8 115.991386 6 180.000000 0
C  10 1.387294 8 128.665811 6 -0.000000 0
C  12 1.402460 10 125.812350 8 -180.000000 0
H  13 1.079381 12 125.078903 10 -0.000000 0
C  1 1.402460 2 125.812350 3 -0.000000 0
H  15 1.079381 1 125.078903 2 -0.000000 0
C  13 1.403445 12 108.382443 10 -180.000000 0
H  17 1.080835 13 124.994055 12 180.000000 0
$end
$rem
   METHOD                CC2 
   PRINT_ORBITALS        TRUE
   MEM_TOTAL		 490000
   MEM_STATIC            2000
   CCMAN2                true    new Dyson code
   PURECART              1111
   BASIS                 aug-cc-pvtz
   AUX_BASIS             rimp2-cc-pvtz
   EA_STATES             [0,0,0,1]
   CC_CONVERGENCE        10
   SCF_CONVERGENCE       10
   EOM_DAVIDSON_CONVERGENCE 10
   CC_TRANS_PROP         true    necessary for Dyson orbitals job 
   CC_DO_DYSON           true
   PRINT_GENERAL_BASIS   true       will be required for ezDyson
$end
--------------------------------------------------------------
 Atom  12: (  0.7487797141, -0.0000000000,  0.5511275172)
         ->(  0.7487798400, -0.0000000000,  0.5511274365)
 Atom  10: (  1.5947707374, -0.0000000000, -0.5483650158)
         ->(  1.5947707449, -0.0000000000, -0.5483651877)
 Atom  11: (  2.6563583415, -0.0000000000, -0.3181969504)
         ->(  2.6563583738, -0.0000000000, -0.3181972366)
 Atom   8: (  1.2628649469, -0.0000000000, -1.9039169913)
         ->(  1.2628648082, -0.0000000000, -1.9039171274)
 Atom   9: (  2.1004887909, -0.0000000000, -2.5907699807)
         ->(  2.1004885782, -0.0000000000, -2.5907702070)
 Atom   6: (  0.0000001013,  0.0000000000, -2.4969737808)
         ->(  0.0000000000,  0.0000000000, -2.4969737808)
 Atom   7: (  0.0000001502,  0.0000000000, -3.5812257806)
         ->(  0.0000000000,  0.0000000000, -3.5812257806)
 Atom  15: ( -1.1497188107,  0.0000000000,  1.8950552592)
         ->( -1.1497185400,  0.0000000000,  1.8950553831)
 Atom  16: ( -2.1735167225,  0.0000000000,  2.2369634026)
         ->( -2.1735164149,  0.0000000000,  2.2369636369)
 Atom  17: (  0.0000001444, -0.0000000000,  2.6999190225)
         ->(  0.0000000000,  0.0000000000,  2.6999190225)
 Atom  18: (  0.0000000956, -0.0000000000,  3.7807540223)
         ->(  0.0000000000,  0.0000000000,  3.7807540223)
 ----------------------------------------------------------------
             Standard Nuclear Orientation (Angstroms)
    I     Atom           X                Y                Z
 ----------------------------------------------------------------
    1      C      -0.7487798402     0.0000000000     0.5511274366
    2      C      -1.5947707452     0.0000000000    -0.5483651878
    3      H      -2.6563583743     0.0000000000    -0.3181972367
    4      C      -1.2628648085     0.0000000000    -1.9039171278
    5      H      -2.1004885786     0.0000000000    -2.5907702075
    6      C       0.0000000000     0.0000000000    -2.4969737813
    7      H       0.0000000000     0.0000000000    -3.5812257813
    8      C       1.2628648085    -0.0000000000    -1.9039171278
    9      H       2.1004885786    -0.0000000000    -2.5907702075
   10      C       1.5947707452    -0.0000000000    -0.5483651878
   11      H       2.6563583743    -0.0000000000    -0.3181972367
   12      C       0.7487798402    -0.0000000000     0.5511274366
   13      C       1.1497185402    -0.0000000000     1.8950553835
   14      H       2.1735164154    -0.0000000000     2.2369636373
   15      C      -1.1497185402     0.0000000000     1.8950553835
   16      H      -2.1735164154     0.0000000000     2.2369636373
   17      C       0.0000000000     0.0000000000     2.6999190230
   18      H       0.0000000000     0.0000000000     3.7807540230
 ----------------------------------------------------------------
 Molecular Point Group                 C2v   NOp =  4
 Largest Abelian Subgroup              C2v   NOp =  4
 Nuclear Repulsion Energy =         454.46094667 hartrees
 There are       34 alpha and       34 beta electrons

 Q-Chem warning in module forms1/BasisType.C, line 2998:

 You are not using the predefined 5D/6D in this basis set.

 Requested basis set is aug-cc-pVTZ
 Basis set in general basis input format:
-----------------------------------------------------------------------
$basis
C    0
S    8    1.000000
   8.23600000E+03    5.31000000E-04 
   1.23500000E+03    4.10800000E-03 
   2.80800000E+02    2.10870000E-02 
   7.92700000E+01    8.18530000E-02 
   2.55900000E+01    2.34817000E-01 
   8.99700000E+00    4.34401000E-01 
   3.31900000E+00    3.46129000E-01 
   3.64300000E-01   -8.98300000E-03 
S    8    1.000000
   8.23600000E+03   -1.13000000E-04 
   1.23500000E+03   -8.78000000E-04 
   2.80800000E+02   -4.54000000E-03 
   7.92700000E+01   -1.81330000E-02 
   2.55900000E+01   -5.57600000E-02 
   8.99700000E+00   -1.26895000E-01 
   3.31900000E+00   -1.70352000E-01 
   3.64300000E-01    5.98684000E-01 
S    1    1.000000
   9.05900000E-01    1.00000000E+00 
S    1    1.000000
   1.28500000E-01    1.00000000E+00 
S    1    1.000000
   4.40200000E-02    1.00000000E+00 
P    3    1.000000
   1.87100000E+01    1.40310000E-02 
   4.13300000E+00    8.68660000E-02 
   1.20000000E+00    2.90216000E-01 
P    1    1.000000
   3.82700000E-01    1.00000000E+00 
P    1    1.000000
   1.20900000E-01    1.00000000E+00 
P    1    1.000000
   3.56900000E-02    1.00000000E+00 
D    1    1.000000
   1.09700000E+00    1.00000000E+00 
D    1    1.000000
   3.18000000E-01    1.00000000E+00 
D    1    1.000000
   1.00000000E-01    1.00000000E+00 
F    1    1.000000
   7.61000000E-01    1.00000000E+00 
F    1    1.000000
   2.68000000E-01    1.00000000E+00 
****
C    0
S    8    1.000000
   8.23600000E+03    5.31000000E-04 
   1.23500000E+03    4.10800000E-03 
   2.80800000E+02    2.10870000E-02 
   7.92700000E+01    8.18530000E-02 
   2.55900000E+01    2.34817000E-01 
   8.99700000E+00    4.34401000E-01 
   3.31900000E+00    3.46129000E-01 
   3.64300000E-01   -8.98300000E-03 
S    8    1.000000
   8.23600000E+03   -1.13000000E-04 
   1.23500000E+03   -8.78000000E-04 
   2.80800000E+02   -4.54000000E-03 
   7.92700000E+01   -1.81330000E-02 
   2.55900000E+01   -5.57600000E-02 
   8.99700000E+00   -1.26895000E-01 
   3.31900000E+00   -1.70352000E-01 
   3.64300000E-01    5.98684000E-01 
S    1    1.000000
   9.05900000E-01    1.00000000E+00 
S    1    1.000000
   1.28500000E-01    1.00000000E+00 
S    1    1.000000
   4.40200000E-02    1.00000000E+00 
P    3    1.000000
   1.87100000E+01    1.40310000E-02 
   4.13300000E+00    8.68660000E-02 
   1.20000000E+00    2.90216000E-01 
P    1    1.000000
   3.82700000E-01    1.00000000E+00 
P    1    1.000000
   1.20900000E-01    1.00000000E+00 
P    1    1.000000
   3.56900000E-02    1.00000000E+00 
D    1    1.000000
   1.09700000E+00    1.00000000E+00 
D    1    1.000000
   3.18000000E-01    1.00000000E+00 
D    1    1.000000
   1.00000000E-01    1.00000000E+00 
F    1    1.000000
   7.61000000E-01    1.00000000E+00 
F    1    1.000000
   2.68000000E-01    1.00000000E+00 
****
H    0
S    3    1.000000
   3.38700000E+01    6.06800000E-03 
   5.09500000E+00    4.53080000E-02 
   1.15900000E+00    2.02822000E-01 
S    1    1.000000
   3.25800000E-01    1.00000000E+00 
S    1    1.000000
   1.02700000E-01    1.00000000E+00 
S    1    1.000000
   2.52600000E-02    1.00000000E+00 
P    1    1.000000
   1.40700000E+00    1.00000000E+00 
P    1    1.000000
   3.88000000E-01    1.00000000E+00 
P    1    1.000000
   1.02000000E-01    1.00000000E+00 
D    1    1.000000
   1.05700000E+00    1.00000000E+00 
D    1    1.000000
   2.47000000E-01    1.00000000E+00 
****
C    0
S    8    1.000000
   8.23600000E+03    5.31000000E-04 
   1.23500000E+03    4.10800000E-03 
   2.80800000E+02    2.10870000E-02 
   7.92700000E+01    8.18530000E-02 
   2.55900000E+01    2.34817000E-01 
   8.99700000E+00    4.34401000E-01 
   3.31900000E+00    3.46129000E-01 
   3.64300000E-01   -8.98300000E-03 
S    8    1.000000
   8.23600000E+03   -1.13000000E-04 
   1.23500000E+03   -8.78000000E-04 
   2.80800000E+02   -4.54000000E-03 
   7.92700000E+01   -1.81330000E-02 
   2.55900000E+01   -5.57600000E-02 
   8.99700000E+00   -1.26895000E-01 
   3.31900000E+00   -1.70352000E-01 
   3.64300000E-01    5.98684000E-01 
S    1    1.000000
   9.05900000E-01    1.00000000E+00 
S    1    1.000000
   1.28500000E-01    1.00000000E+00 
S    1    1.000000
   4.40200000E-02    1.00000000E+00 
P    3    1.000000
   1.87100000E+01    1.40310000E-02 
   4.13300000E+00    8.68660000E-02 
   1.20000000E+00    2.90216000E-01 
P    1    1.000000
   3.82700000E-01    1.00000000E+00 
P    1    1.000000
   1.20900000E-01    1.00000000E+00 
P    1    1.000000
   3.56900000E-02    1.00000000E+00 
D    1    1.000000
   1.09700000E+00    1.00000000E+00 
D    1    1.000000
   3.18000000E-01    1.00000000E+00 
D    1    1.000000
   1.00000000E-01    1.00000000E+00 
F    1    1.000000
   7.61000000E-01    1.00000000E+00 
F    1    1.000000
   2.68000000E-01    1.00000000E+00 
****
H    0
S    3    1.000000
   3.38700000E+01    6.06800000E-03 
   5.09500000E+00    4.53080000E-02 
   1.15900000E+00    2.02822000E-01 
S    1    1.000000
   3.25800000E-01    1.00000000E+00 
S    1    1.000000
   1.02700000E-01    1.00000000E+00 
S    1    1.000000
   2.52600000E-02    1.00000000E+00 
P    1    1.000000
   1.40700000E+00    1.00000000E+00 
P    1    1.000000
   3.88000000E-01    1.00000000E+00 
P    1    1.000000
   1.02000000E-01    1.00000000E+00 
D    1    1.000000
   1.05700000E+00    1.00000000E+00 
D    1    1.000000
   2.47000000E-01    1.00000000E+00 
****
C    0
S    8    1.000000
   8.23600000E+03    5.31000000E-04 
   1.23500000E+03    4.10800000E-03 
   2.80800000E+02    2.10870000E-02 
   7.92700000E+01    8.18530000E-02 
   2.55900000E+01    2.34817000E-01 
   8.99700000E+00    4.34401000E-01 
   3.31900000E+00    3.46129000E-01 
   3.64300000E-01   -8.98300000E-03 
S    8    1.000000
   8.23600000E+03   -1.13000000E-04 
   1.23500000E+03   -8.78000000E-04 
   2.80800000E+02   -4.54000000E-03 
   7.92700000E+01   -1.81330000E-02 
   2.55900000E+01   -5.57600000E-02 
   8.99700000E+00   -1.26895000E-01 
   3.31900000E+00   -1.70352000E-01 
   3.64300000E-01    5.98684000E-01 
S    1    1.000000
   9.05900000E-01    1.00000000E+00 
S    1    1.000000
   1.28500000E-01    1.00000000E+00 
S    1    1.000000
   4.40200000E-02    1.00000000E+00 
P    3    1.000000
   1.87100000E+01    1.40310000E-02 
   4.13300000E+00    8.68660000E-02 
   1.20000000E+00    2.90216000E-01 
P    1    1.000000
   3.82700000E-01    1.00000000E+00 
P    1    1.000000
   1.20900000E-01    1.00000000E+00 
P    1    1.000000
   3.56900000E-02    1.00000000E+00 
D    1    1.000000
   1.09700000E+00    1.00000000E+00 
D    1    1.000000
   3.18000000E-01    1.00000000E+00 
D    1    1.000000
   1.00000000E-01    1.00000000E+00 
F    1    1.000000
   7.61000000E-01    1.00000000E+00 
F    1    1.000000
   2.68000000E-01    1.00000000E+00 
****
H    0
S    3    1.000000
   3.38700000E+01    6.06800000E-03 
   5.09500000E+00    4.53080000E-02 
   1.15900000E+00    2.02822000E-01 
S    1    1.000000
   3.25800000E-01    1.00000000E+00 
S    1    1.000000
   1.02700000E-01    1.00000000E+00 
S    1    1.000000
   2.52600000E-02    1.00000000E+00 
P    1    1.000000
   1.40700000E+00    1.00000000E+00 
P    1    1.000000
   3.88000000E-01    1.00000000E+00 
P    1    1.000000
   1.02000000E-01    1.00000000E+00 
D    1    1.000000
   1.05700000E+00    1.00000000E+00 
D    1    1.000000
   2.47000000E-01    1.00000000E+00 
****
C    0
S    8    1.000000
   8.23600000E+03    5.31000000E-04 
   1.23500000E+03    4.10800000E-03 
   2.80800000E+02    2.10870000E-02 
   7.92700000E+01    8.18530000E-02 
   2.55900000E+01    2.34817000E-01 
   8.99700000E+00    4.34401000E-01 
   3.31900000E+00    3.46129000E-01 
   3.64300000E-01   -8.98300000E-03 
S    8    1.000000
   8.23600000E+03   -1.13000000E-04 
   1.23500000E+03   -8.78000000E-04 
   2.80800000E+02   -4.54000000E-03 
   7.92700000E+01   -1.81330000E-02 
   2.55900000E+01   -5.57600000E-02 
   8.99700000E+00   -1.26895000E-01 
   3.31900000E+00   -1.70352000E-01 
   3.64300000E-01    5.98684000E-01 
S    1    1.000000
   9.05900000E-01    1.00000000E+00 
S    1    1.000000
   1.28500000E-01    1.00000000E+00 
S    1    1.000000
   4.40200000E-02    1.00000000E+00 
P    3    1.000000
   1.87100000E+01    1.40310000E-02 
   4.13300000E+00    8.68660000E-02 
   1.20000000E+00    2.90216000E-01 
P    1    1.000000
   3.82700000E-01    1.00000000E+00 
P    1    1.000000
   1.20900000E-01    1.00000000E+00 
P    1    1.000000
   3.56900000E-02    1.00000000E+00 
D    1    1.000000
   1.09700000E+00    1.00000000E+00 
D    1    1.000000
   3.18000000E-01    1.00000000E+00 
D    1    1.000000
   1.00000000E-01    1.00000000E+00 
F    1    1.000000
   7.61000000E-01    1.00000000E+00 
F    1    1.000000
   2.68000000E-01    1.00000000E+00 
****
H    0
S    3    1.000000
   3.38700000E+01    6.06800000E-03 
   5.09500000E+00    4.53080000E-02 
   1.15900000E+00    2.02822000E-01 
S    1    1.000000
   3.25800000E-01    1.00000000E+00 
S    1    1.000000
   1.02700000E-01    1.00000000E+00 
S    1    1.000000
   2.52600000E-02    1.00000000E+00 
P    1    1.000000
   1.40700000E+00    1.00000000E+00 
P    1    1.000000
   3.88000000E-01    1.00000000E+00 
P    1    1.000000
   1.02000000E-01    1.00000000E+00 
D    1    1.000000
   1.05700000E+00    1.00000000E+00 
D    1    1.000000
   2.47000000E-01    1.00000000E+00 
****
C    0
S    8    1.000000
   8.23600000E+03    5.31000000E-04 
   1.23500000E+03    4.10800000E-03 
   2.80800000E+02    2.10870000E-02 
   7.92700000E+01    8.18530000E-02 
   2.55900000E+01    2.34817000E-01 
   8.99700000E+00    4.34401000E-01 
   3.31900000E+00    3.46129000E-01 
   3.64300000E-01   -8.98300000E-03 
S    8    1.000000
   8.23600000E+03   -1.13000000E-04 
   1.23500000E+03   -8.78000000E-04 
   2.80800000E+02   -4.54000000E-03 
   7.92700000E+01   -1.81330000E-02 
   2.55900000E+01   -5.57600000E-02 
   8.99700000E+00   -1.26895000E-01 
   3.31900000E+00   -1.70352000E-01 
   3.64300000E-01    5.98684000E-01 
S    1    1.000000
   9.05900000E-01    1.00000000E+00 
S    1    1.000000
   1.28500000E-01    1.00000000E+00 
S    1    1.000000
   4.40200000E-02    1.00000000E+00 
P    3    1.000000
   1.87100000E+01    1.40310000E-02 
   4.13300000E+00    8.68660000E-02 
   1.20000000E+00    2.90216000E-01 
P    1    1.000000
   3.82700000E-01    1.00000000E+00 
P    1    1.000000
   1.20900000E-01    1.00000000E+00 
P    1    1.000000
   3.56900000E-02    1.00000000E+00 
D    1    1.000000
   1.09700000E+00    1.00000000E+00 
D    1    1.000000
   3.18000000E-01    1.00000000E+00 
D    1    1.000000
   1.00000000E-01    1.00000000E+00 
F    1    1.000000
   7.61000000E-01    1.00000000E+00 
F    1    1.000000
   2.68000000E-01    1.00000000E+00 
****
H    0
S    3    1.000000
   3.38700000E+01    6.06800000E-03 
   5.09500000E+00    4.53080000E-02 
   1.15900000E+00    2.02822000E-01 
S    1    1.000000
   3.25800000E-01    1.00000000E+00 
S    1    1.000000
   1.02700000E-01    1.00000000E+00 
S    1    1.000000
   2.52600000E-02    1.00000000E+00 
P    1    1.000000
   1.40700000E+00    1.00000000E+00 
P    1    1.000000
   3.88000000E-01    1.00000000E+00 
P    1    1.000000
   1.02000000E-01    1.00000000E+00 
D    1    1.000000
   1.05700000E+00    1.00000000E+00 
D    1    1.000000
   2.47000000E-01    1.00000000E+00 
****
C    0
S    8    1.000000
   8.23600000E+03    5.31000000E-04 
   1.23500000E+03    4.10800000E-03 
   2.80800000E+02    2.10870000E-02 
   7.92700000E+01    8.18530000E-02 
   2.55900000E+01    2.34817000E-01 
   8.99700000E+00    4.34401000E-01 
   3.31900000E+00    3.46129000E-01 
   3.64300000E-01   -8.98300000E-03 
S    8    1.000000
   8.23600000E+03   -1.13000000E-04 
   1.23500000E+03   -8.78000000E-04 
   2.80800000E+02   -4.54000000E-03 
   7.92700000E+01   -1.81330000E-02 
   2.55900000E+01   -5.57600000E-02 
   8.99700000E+00   -1.26895000E-01 
   3.31900000E+00   -1.70352000E-01 
   3.64300000E-01    5.98684000E-01 
S    1    1.000000
   9.05900000E-01    1.00000000E+00 
S    1    1.000000
   1.28500000E-01    1.00000000E+00 
S    1    1.000000
   4.40200000E-02    1.00000000E+00 
P    3    1.000000
   1.87100000E+01    1.40310000E-02 
   4.13300000E+00    8.68660000E-02 
   1.20000000E+00    2.90216000E-01 
P    1    1.000000
   3.82700000E-01    1.00000000E+00 
P    1    1.000000
   1.20900000E-01    1.00000000E+00 
P    1    1.000000
   3.56900000E-02    1.00000000E+00 
D    1    1.000000
   1.09700000E+00    1.00000000E+00 
D    1    1.000000
   3.18000000E-01    1.00000000E+00 
D    1    1.000000
   1.00000000E-01    1.00000000E+00 
F    1    1.000000
   7.61000000E-01    1.00000000E+00 
F    1    1.000000
   2.68000000E-01    1.00000000E+00 
****
C    0
S    8    1.000000
   8.23600000E+03    5.31000000E-04 
   1.23500000E+03    4.10800000E-03 
   2.80800000E+02    2.10870000E-02 
   7.92700000E+01    8.18530000E-02 
   2.55900000E+01    2.34817000E-01 
   8.99700000E+00    4.34401000E-01 
   3.31900000E+00    3.46129000E-01 
   3.64300000E-01   -8.98300000E-03 
S    8    1.000000
   8.23600000E+03   -1.13000000E-04 
   1.23500000E+03   -8.78000000E-04 
   2.80800000E+02   -4.54000000E-03 
   7.92700000E+01   -1.81330000E-02 
   2.55900000E+01   -5.57600000E-02 
   8.99700000E+00   -1.26895000E-01 
   3.31900000E+00   -1.70352000E-01 
   3.64300000E-01    5.98684000E-01 
S    1    1.000000
   9.05900000E-01    1.00000000E+00 
S    1    1.000000
   1.28500000E-01    1.00000000E+00 
S    1    1.000000
   4.40200000E-02    1.00000000E+00 
P    3    1.000000
   1.87100000E+01    1.40310000E-02 
   4.13300000E+00    8.68660000E-02 
   1.20000000E+00    2.90216000E-01 
P    1    1.000000
   3.82700000E-01    1.00000000E+00 
P    1    1.000000
   1.20900000E-01    1.00000000E+00 
P    1    1.000000
   3.56900000E-02    1.00000000E+00 
D    1    1.000000
   1.09700000E+00    1.00000000E+00 
D    1    1.000000
   3.18000000E-01    1.00000000E+00 
D    1    1.000000
   1.00000000E-01    1.00000000E+00 
F    1    1.000000
   7.61000000E-01    1.00000000E+00 
F    1    1.000000
   2.68000000E-01    1.00000000E+00 
****
H    0
S    3    1.000000
   3.38700000E+01    6.06800000E-03 
   5.09500000E+00    4.53080000E-02 
   1.15900000E+00    2.02822000E-01 
S    1    1.000000
   3.25800000E-01    1.00000000E+00 
S    1    1.000000
   1.02700000E-01    1.00000000E+00 
S    1    1.000000
   2.52600000E-02    1.00000000E+00 
P    1    1.000000
   1.40700000E+00    1.00000000E+00 
P    1    1.000000
   3.88000000E-01    1.00000000E+00 
P    1    1.000000
   1.02000000E-01    1.00000000E+00 
D    1    1.000000
   1.05700000E+00    1.00000000E+00 
D    1    1.000000
   2.47000000E-01    1.00000000E+00 
****
C    0
S    8    1.000000
   8.23600000E+03    5.31000000E-04 
   1.23500000E+03    4.10800000E-03 
   2.80800000E+02    2.10870000E-02 
   7.92700000E+01    8.18530000E-02 
   2.55900000E+01    2.34817000E-01 
   8.99700000E+00    4.34401000E-01 
   3.31900000E+00    3.46129000E-01 
   3.64300000E-01   -8.98300000E-03 
S    8    1.000000
   8.23600000E+03   -1.13000000E-04 
   1.23500000E+03   -8.78000000E-04 
   2.80800000E+02   -4.54000000E-03 
   7.92700000E+01   -1.81330000E-02 
   2.55900000E+01   -5.57600000E-02 
   8.99700000E+00   -1.26895000E-01 
   3.31900000E+00   -1.70352000E-01 
   3.64300000E-01    5.98684000E-01 
S    1    1.000000
   9.05900000E-01    1.00000000E+00 
S    1    1.000000
   1.28500000E-01    1.00000000E+00 
S    1    1.000000
   4.40200000E-02    1.00000000E+00 
P    3    1.000000
   1.87100000E+01    1.40310000E-02 
   4.13300000E+00    8.68660000E-02 
   1.20000000E+00    2.90216000E-01 
P    1    1.000000
   3.82700000E-01    1.00000000E+00 
P    1    1.000000
   1.20900000E-01    1.00000000E+00 
P    1    1.000000
   3.56900000E-02    1.00000000E+00 
D    1    1.000000
   1.09700000E+00    1.00000000E+00 
D    1    1.000000
   3.18000000E-01    1.00000000E+00 
D    1    1.000000
   1.00000000E-01    1.00000000E+00 
F    1    1.000000
   7.61000000E-01    1.00000000E+00 
F    1    1.000000
   2.68000000E-01    1.00000000E+00 
****
H    0
S    3    1.000000
   3.38700000E+01    6.06800000E-03 
   5.09500000E+00    4.53080000E-02 
   1.15900000E+00    2.02822000E-01 
S    1    1.000000
   3.25800000E-01    1.00000000E+00 
S    1    1.000000
   1.02700000E-01    1.00000000E+00 
S    1    1.000000
   2.52600000E-02    1.00000000E+00 
P    1    1.000000
   1.40700000E+00    1.00000000E+00 
P    1    1.000000
   3.88000000E-01    1.00000000E+00 
P    1    1.000000
   1.02000000E-01    1.00000000E+00 
D    1    1.000000
   1.05700000E+00    1.00000000E+00 
D    1    1.000000
   2.47000000E-01    1.00000000E+00 
****
C    0
S    8    1.000000
   8.23600000E+03    5.31000000E-04 
   1.23500000E+03    4.10800000E-03 
   2.80800000E+02    2.10870000E-02 
   7.92700000E+01    8.18530000E-02 
   2.55900000E+01    2.34817000E-01 
   8.99700000E+00    4.34401000E-01 
   3.31900000E+00    3.46129000E-01 
   3.64300000E-01   -8.98300000E-03 
S    8    1.000000
   8.23600000E+03   -1.13000000E-04 
   1.23500000E+03   -8.78000000E-04 
   2.80800000E+02   -4.54000000E-03 
   7.92700000E+01   -1.81330000E-02 
   2.55900000E+01   -5.57600000E-02 
   8.99700000E+00   -1.26895000E-01 
   3.31900000E+00   -1.70352000E-01 
   3.64300000E-01    5.98684000E-01 
S    1    1.000000
   9.05900000E-01    1.00000000E+00 
S    1    1.000000
   1.28500000E-01    1.00000000E+00 
S    1    1.000000
   4.40200000E-02    1.00000000E+00 
P    3    1.000000
   1.87100000E+01    1.40310000E-02 
   4.13300000E+00    8.68660000E-02 
   1.20000000E+00    2.90216000E-01 
P    1    1.000000
   3.82700000E-01    1.00000000E+00 
P    1    1.000000
   1.20900000E-01    1.00000000E+00 
P    1    1.000000
   3.56900000E-02    1.00000000E+00 
D    1    1.000000
   1.09700000E+00    1.00000000E+00 
D    1    1.000000
   3.18000000E-01    1.00000000E+00 
D    1    1.000000
   1.00000000E-01    1.00000000E+00 
F    1    1.000000
   7.61000000E-01    1.00000000E+00 
F    1    1.000000
   2.68000000E-01    1.00000000E+00 
****
H    0
S    3    1.000000
   3.38700000E+01    6.06800000E-03 
   5.09500000E+00    4.53080000E-02 
   1.15900000E+00    2.02822000E-01 
S    1    1.000000
   3.25800000E-01    1.00000000E+00 
S    1    1.000000
   1.02700000E-01    1.00000000E+00 
S    1    1.000000
   2.52600000E-02    1.00000000E+00 
P    1    1.000000
   1.40700000E+00    1.00000000E+00 
P    1    1.000000
   3.88000000E-01    1.00000000E+00 
P    1    1.000000
   1.02000000E-01    1.00000000E+00 
D    1    1.000000
   1.05700000E+00    1.00000000E+00 
D    1    1.000000
   2.47000000E-01    1.00000000E+00 
****
$end
-----------------------------------------------------------------------
 There are 212 shells and 644 basis functions
 Total memory of 490000 MB is distributed as follows: 
   MEM_STATIC is set to 2000 MB
   QALLOC/CCMAN JOB total memory use is  488000 MB
 Warning: actual memory use might exceed 490000 MB

 Total QAlloc Memory Limit 490000 MB
 Mega-Array Size      1956 MB
 MEM_STATIC part      2000 MB

 Requested basis set is rimp2-cc-pVTZ
 There are 310 shells and 1050 basis functions
 A cutoff of  1.0D-14 yielded  21689 shell pairs
 There are    200109 function pairs (    272129 Cartesian)
 Smallest overlap matrix eigenvalue = 2.10E-07
 Linear dependence detected in AO basis
 Tighter screening thresholds may be required for diffuse basis sets
 Use S2THRESH > 14 and THRESH = 14 in case of SCF convergence issues
 Number of orthogonalized atomic orbitals = 641
 Maximum deviation from orthogonality = 4.042E-10

 Scale SEOQF with 1.000000e-01/1.000000e-01/1.000000e-01

 Standard Electronic Orientation quadrupole field applied
 Nucleus-field energy     =    -0.0000000204 hartrees
 Guess from superposition of atomic densities
 Warning:  Energy on first SCF cycle will be non-variational
 SAD guess density has 68.000000 electrons

 -----------------------------------------------------------------------
  General SCF calculation program by
  Eric Jon Sundstrom, Paul Horn, Yuezhi Mao, Dmitri Zuev, Alec White,
  David Stuck, Shaama M.S., Shane Yost, Joonho Lee, David Small,
  Daniel Levine, Susi Lehtola, Hugh Burton, Evgeny Epifanovsky,
  Bang C. Huynh
 -----------------------------------------------------------------------
 Hartree-Fock
 using 16 threads for integral computing
 -------------------------------------------------------
 OpenMP Integral computing Module                
 Release: version 1.0, May 2013, Q-Chem Inc. Pittsburgh 
 -------------------------------------------------------
 A restricted SCF calculation will be
 performed using DIIS
 SCF converges when DIIS error is below 1.0e-10
 ---------------------------------------
  Cycle       Energy         DIIS error
 ---------------------------------------
    1    -387.9255668443      1.83e-02  
    2    -383.2927640006      1.21e-03  
    3    -383.3956111664      4.19e-04  
    4    -383.4039276772      2.88e-04  
    5    -383.4087400530      3.70e-05  
    6    -383.4088319393      1.03e-05  
    7    -383.4088463534      4.51e-06  
    8    -383.4088503780      2.63e-06  
    9    -383.4088535111      1.56e-06  
   10    -383.4088546777      6.32e-07  
   11    -383.4088548802      2.23e-07  
   12    -383.4088548929      9.19e-08  
   13    -383.4088548954      2.48e-08  
   14    -383.4088548955      7.03e-09  
   15    -383.4088548956      2.68e-09  
   16    -383.4088548956      9.76e-10  
   17    -383.4088548956      2.67e-10  
   18    -383.4088548956      9.38e-11  Convergence criterion met
 ---------------------------------------
 SCF time:   CPU 10795.32s  wall 694.00s 
 SCF   energy =  -383.40885490
 Total energy =  -383.40885490


 ------------------------------------------------------------------------------

   CCMAN2: suite of methods based on coupled cluster
           and equation of motion theories.

   Components:
   * libvmm-1.3-trunk
     by Evgeny Epifanovsky, Ilya Kaliman.
   * libtensor-2.5-trunk
     by Evgeny Epifanovsky, Michael Wormit, Dmitry Zuev, Sam Manzer, 
        Ilya Kaliman.
   * libcc-2.5-trunk
     by Evgeny Epifanovsky, Arik Landau, Tomasz Kus, Kirill Khistyaev, 
        Dmitry Zuev, Prashant Manohar, Xintian Feng, Anna Krylov, 
        Matthew Goldey, Alec White, Thomas Jagau, Kaushik Nanda, 
        Anastasia Gunina, Alexander Kunitsa, Joonho Lee.

   CCMAN original authors:
   Anna I. Krylov, C. David Sherrill, Steven R. Gwaltney,
   Edward F. C. Byrd (2000)
   Sergey V. Levchenko, Lyudmila V. Slipchenko, Tao Wang,
   Ana-Maria C. Cristian (2003)
   Piotr A. Pieniazek, C. Melania Oana, Evgeny Epifanovsky (2007)
   Prashant Manohar (2009)

 ------------------------------------------------------------------------------


 Allocating and initializing 488000MB of RAM (this may take a while)...
 Calculation will run on 16 cores.


 Alpha MOs, Restricted
 -- Occupied --                  
-11.265 -11.265 -11.262 -11.245 -11.245 -11.244 -11.243 -11.231
  1 B1    1 A1    2 A1    2 B1    3 A1    4 A1    3 B1    5 A1                 
-11.215 -11.215  -1.177  -1.114  -1.071  -1.004  -0.962  -0.884
  4 B1    6 A1    7 A1    8 A1    5 B1    9 A1    6 B1   10 A1                 
 -0.849  -0.753  -0.747  -0.710  -0.681  -0.631  -0.627  -0.575
  7 B1   11 A1   12 A1    8 B1   13 A1   14 A1    9 B1   10 B1                 
 -0.557  -0.532  -0.532  -0.530  -0.513  -0.480  -0.451  -0.407
 15 A1   11 B1   16 A1    1 B2   12 B1   17 A1    2 B2    1 A2                 
 -0.301  -0.261
  3 B2    2 A2                                                                 
 -- Virtual --                   
  0.027   0.031   0.033   0.038   0.043   0.044   0.059   0.062
 18 A1   13 B1   19 A1    4 B2   20 A1   14 B1   21 A1   15 B1                 
  0.067   0.079   0.084   0.091   0.096   0.104   0.104   0.107
  3 A2   22 A1    5 B2   23 A1    4 A2   24 A1    6 B2   16 B1                 
  0.118   0.122   0.123   0.123   0.126   0.129   0.135   0.137
 17 B1   25 A1   18 B1    7 B2    5 A2   26 A1   27 A1   19 B1                 
  0.141   0.143   0.152   0.160   0.162   0.163   0.164   0.167
 28 A1   20 B1    8 B2    9 B2   29 A1    6 A2   21 B1   30 A1                 
  0.173   0.182   0.188   0.190   0.205   0.206   0.218   0.222
 22 B1   31 A1   10 B2   32 A1   23 B1    7 A2   33 A1   24 B1                 
  0.230   0.233   0.241   0.247   0.258   0.263   0.273   0.273
 11 B2   34 A1   35 A1   25 B1   26 B1   36 A1   12 B2   37 A1                 
  0.274   0.276   0.279   0.284   0.290   0.298   0.301   0.311
 27 B1   13 B2    8 A2   38 A1   28 B1   39 A1   29 B1   14 B2                 
  0.317   0.317   0.330   0.330   0.335   0.345   0.346   0.350
 40 A1    9 A2   30 B1   41 A1   42 A1   31 B1   15 B2   43 A1                 
  0.351   0.355   0.365   0.366   0.381   0.381   0.382   0.390
 10 A2   32 B1   33 B1   44 A1   34 B1   45 A1   16 B2   11 A2                 
  0.390   0.406   0.412   0.414   0.424   0.426   0.430   0.434
 46 A1   17 B2   12 A2   47 A1   18 B2   35 B1   48 A1   36 B1                 
  0.437   0.449   0.450   0.454   0.462   0.463   0.465   0.477
 13 A2   19 B2   49 A1   20 B2   50 A1   14 A2   21 B2   37 B1                 
  0.485   0.485   0.488   0.490   0.493   0.499   0.503   0.503
 51 A1   38 B1   52 A1   39 B1   40 B1   41 B1   15 A2   53 A1                 
  0.505   0.506   0.512   0.519   0.530   0.535   0.537   0.544
 54 A1   22 B2   55 A1   42 B1   43 B1   23 B2   56 A1   44 B1                 
  0.551   0.553   0.556   0.557   0.562   0.569   0.570   0.577
 57 A1   58 A1   59 A1   45 B1   16 A2   60 A1   46 B1   24 B2                 
  0.583   0.588   0.603   0.608   0.613   0.614   0.628   0.631
 61 A1   17 A2   62 A1   25 B2   47 B1   63 A1   48 B1   26 B2                 
  0.649   0.658   0.672   0.685   0.688   0.695   0.695   0.700
 18 A2   19 A2   49 B1   50 B1   64 A1   51 B1   27 B2   65 A1                 
  0.705   0.715   0.719   0.736   0.736   0.744   0.746   0.751
 66 A1   52 B1   67 A1   53 B1   28 B2   20 A2   68 A1   54 B1                 
  0.757   0.763   0.764   0.769   0.787   0.787   0.804   0.805
 69 A1   55 B1   70 A1   56 B1   71 A1   29 B2   57 B1   21 A2                 
  0.812   0.825   0.831   0.840   0.840   0.844   0.864   0.867
 72 A1   22 A2   73 A1   58 B1   30 B2   23 A2   59 B1   31 B2                 
  0.872   0.881   0.887   0.888   0.889   0.896   0.902   0.906
 74 A1   24 A2   75 A1   32 B2   60 B1   76 A1   61 B1   33 B2                 
  0.908   0.919   0.926   0.929   0.934   0.942   0.952   0.953
 77 A1   34 B2   25 A2   78 A1   62 B1   79 A1   63 B1   35 B2                 
  0.954   0.963   0.964   0.969   0.981   0.987   0.988   1.006
 26 A2   80 A1   36 B2   64 B1   37 B2   27 A2   81 A1   65 B1                 
  1.008   1.011   1.017   1.026   1.028   1.038   1.038   1.048
 28 A2   82 A1   38 B2   66 B1   83 A1   67 B1   29 A2   84 A1                 
  1.052   1.064   1.065   1.073   1.075   1.080   1.080   1.081
 30 A2   85 A1   39 B2   68 B1   40 B2   86 A1   31 A2   69 B1                 
  1.095   1.097   1.107   1.109   1.116   1.130   1.137   1.139
 41 B2   87 A1   70 B1   42 B2   88 A1   89 A1   71 B1   43 B2                 
  1.139   1.145   1.159   1.174   1.174   1.175   1.177   1.181
 72 B1   32 A2   90 A1   91 A1   73 B1   44 B2   92 A1   74 B1                 
  1.188   1.197   1.199   1.199   1.200   1.205   1.209   1.222
 33 A2   75 B1   34 A2   76 B1   93 A1   94 A1   95 A1   77 B1                 
  1.235   1.236   1.245   1.247   1.255   1.263   1.277   1.279
 96 A1   45 B2   97 A1   78 B1   35 A2   46 B2   47 B2   98 A1                 
  1.281   1.282   1.294   1.307   1.326   1.338   1.348   1.348
 36 A2   79 B1   99 A1   80 B1   81 B1  100 A1   37 A2   82 B1                 
  1.355   1.370   1.374   1.388   1.389   1.396   1.400   1.410
101 A1  102 A1   83 B1   84 B1   48 B2   38 A2  103 A1  104 A1                 
  1.414   1.429   1.432   1.440   1.449   1.450   1.463   1.474
105 A1   49 B2   85 B1   50 B2   86 B1  106 A1   39 A2   51 B2                 
  1.480   1.502   1.506   1.508   1.513   1.525   1.528   1.554
107 A1   87 B1   40 A2   88 B1  108 A1   41 A2   89 B1   52 B2                 
  1.568   1.596   1.602   1.607   1.619   1.622   1.626   1.627
109 A1   53 B2  110 A1   90 B1   91 B1  111 A1   42 A2   54 B2                 
  1.675   1.677   1.678   1.694   1.708   1.708   1.716   1.739
 43 A2  112 A1   92 B1   44 A2  113 A1   55 B2   56 B2   93 B1                 
  1.742   1.743   1.763   1.773   1.785   1.798   1.815   1.830
114 A1   45 A2   94 B1  115 A1   95 B1  116 A1   46 A2   96 B1                 
  1.831   1.833   1.856   1.862   1.866   1.880   1.885   1.901
117 A1   57 B2   97 B1   47 A2   58 B2  118 A1   59 B2   98 B1                 
  1.906   1.915   1.922   1.928   1.938   1.943   1.945   1.957
 48 A2  119 A1   60 B2  120 A1   99 B1   61 B2  100 B1   49 A2                 
  1.959   1.974   1.984   1.994   2.005   2.012   2.026   2.038
121 A1  101 B1  102 B1  122 A1  123 A1  103 B1  124 A1   62 B2                 
  2.039   2.039   2.058   2.069   2.070   2.081   2.083   2.092
 50 A2  125 A1   51 A2   63 B2  126 A1  127 A1  104 B1  128 A1                 
  2.121   2.124   2.144   2.148   2.164   2.170   2.175   2.176
 64 B2  105 B1  106 B1  129 A1  107 B1   52 A2   65 B2  108 B1                 
  2.193   2.195   2.205   2.217   2.222   2.245   2.245   2.259
 66 B2  130 A1   53 A2  109 B1  131 A1   54 A2   67 B2  110 B1                 
  2.296   2.308   2.308   2.312   2.317   2.323   2.339   2.340
111 B1  132 A1   68 B2  112 B1  133 A1   55 A2   69 B2  113 B1                 
  2.343   2.360   2.367   2.392   2.403   2.408   2.441   2.460
 56 A2  134 A1   70 B2  135 A1   57 A2  114 B1  136 A1  137 A1                 
  2.469   2.474   2.502   2.506   2.531   2.551   2.570   2.571
115 B1   71 B2  138 A1  116 B1   58 A2  117 B1   72 B2  118 B1                 
  2.589   2.629   2.635   2.657   2.683   2.688   2.713   2.744
139 A1  140 A1  119 B1   59 A2  141 A1  120 B1  121 B1  142 A1                 
  2.762   2.792   2.828   2.834   2.872   2.885   2.967   2.977
 73 B2  143 A1  122 B1   60 A2  123 B1  124 B1  144 A1  145 A1                 
  3.033   3.036   3.054   3.149   3.172   3.178   3.179   3.179
146 A1   74 B2  125 B1  147 A1   61 A2   75 B2  148 A1  126 B1                 
  3.200   3.214   3.254   3.258   3.263   3.292   3.305   3.319
127 B1   62 A2   76 B2  149 A1   63 A2   77 B2  150 A1  128 B1                 
  3.331   3.336   3.357   3.360   3.366   3.372   3.373   3.374
151 A1  129 B1   64 A2   78 B2  152 A1   79 B2   80 B2  130 B1                 
  3.397   3.417   3.423   3.439   3.452   3.465   3.467   3.474
 65 A2  153 A1   81 B2  154 A1   82 B2   66 A2  131 B1   83 B2                 
  3.478   3.499   3.511   3.517   3.526   3.545   3.551   3.560
155 A1   67 A2  132 B1   84 B2   68 A2  156 A1  133 B1   69 A2                 
  3.567   3.584   3.599   3.605   3.610   3.615   3.625   3.642
 85 B2  134 B1  157 A1  135 B1   70 A2  158 A1   86 B2  159 A1                 
  3.644   3.665   3.676   3.689   3.691   3.705   3.719   3.728
 87 B2  160 A1  136 B1   88 B2   71 A2  161 A1  137 B1  138 B1                 
  3.732   3.750   3.773   3.773   3.806   3.816   3.818   3.821
162 A1   72 A2   89 B2  139 B1  163 A1   90 B2  140 B1  164 A1                 
  3.825   3.830   3.853   3.853   3.858   3.881   3.883   3.892
 73 A2  165 A1  166 A1   74 A2   91 B2   92 B2  141 B1  167 A1                 
  3.930   3.936   3.952   3.952   3.967   3.969   3.970   3.992
142 B1   75 A2  168 A1  143 B1  169 A1  144 B1   93 B2   76 A2                 
  3.995   4.014   4.015   4.023   4.041   4.045   4.055   4.076
170 A1   94 B2  171 A1  145 B1  146 B1  172 A1   77 A2  173 A1                 
  4.093   4.095   4.101   4.107   4.121   4.140   4.159   4.163
174 A1  175 A1   95 B2  147 B1  148 B1   78 A2  149 B1   96 B2                 
  4.165   4.176   4.191   4.200   4.217   4.233   4.259   4.260
176 A1  177 A1   79 A2  150 B1   97 B2   80 A2  178 A1  151 B1                 
  4.269   4.277   4.281   4.299   4.310   4.311   4.321   4.321
 81 A2   98 B2  179 A1   82 A2   99 B2  180 A1  152 B1   83 A2                 
  4.336   4.351   4.361   4.373   4.381   4.400   4.401   4.404
153 B1  181 A1  182 A1  154 B1  155 B1   84 A2  100 B2  183 A1                 
  4.426   4.427   4.453   4.467   4.488   4.491   4.493   4.519
156 B1  101 B2  184 A1  157 B1  158 B1  185 A1   85 A2  186 A1                 
  4.529   4.555   4.572   4.593   4.607   4.636   4.650   4.664
102 B2   86 A2  159 B1  160 B1  187 A1  188 A1  189 A1  103 B2                 
  4.668   4.681   4.691   4.695   4.716   4.722   4.726   4.746
 87 A2  161 B1  162 B1   88 A2  190 A1  163 B1  104 B2  164 B1                 
  4.758   4.766   4.802   4.817   4.825   4.838   4.861   4.876
191 A1   89 A2  105 B2  192 A1   90 A2  106 B2  165 B1  193 A1                 
  4.914   4.930   4.937   4.972   4.996   4.996   5.008   5.009
166 B1  194 A1  107 B2   91 A2  195 A1  108 B2  196 A1  167 B1                 
  5.018   5.037   5.043   5.072   5.088   5.109   5.116   5.140
109 B2  197 A1   92 A2  168 B1  110 B2   93 A2  111 B2  198 A1                 
  5.140   5.142   5.145   5.163   5.170   5.171   5.194   5.232
112 B2  169 B1   94 A2  170 B1  199 A1   95 A2  113 B2  171 B1                 
  5.248   5.256   5.265   5.277   5.295   5.305   5.327   5.334
 96 A2  114 B2  172 B1  200 A1   97 A2  201 A1  173 B1  115 B2                 
  5.399   5.412   5.465   5.469   5.524   5.531   5.548   5.584
174 B1  202 A1  203 A1   98 A2  175 B1  176 B1  204 A1   99 A2                 
  5.617   5.621   5.648   5.665   5.675   5.678   5.707   5.759
116 B2  177 B1  205 A1  206 A1  178 B1  207 A1  179 B1  180 B1                 
  5.764   5.788   5.793   5.826   5.899   6.028   6.110   6.116
208 A1  117 B2  209 A1  181 B1  182 B1  210 A1  211 A1  183 B1                 
  6.118   6.203   6.252   6.311   6.321   6.404   6.444   6.475
212 A1  213 A1  184 B1  185 B1  214 A1  215 A1  186 B1  216 A1                 
  6.494   6.606   6.642   6.685   6.707   6.743   6.818   6.856
187 B1  217 A1  188 B1  218 A1  189 B1  190 B1  219 A1  191 B1                 
  6.941   6.969   7.160   7.199   7.670  16.550  16.611  17.392
192 B1  220 A1  221 A1  193 B1  194 B1  195 B1  222 A1  223 A1                 
 18.599  18.807  18.887  19.253  20.004  20.437  20.494
224 A1  225 A1  196 B1  226 A1  227 A1  197 B1  198 B1                         

 Beta MOs, Restricted
 -- Occupied --                  
-11.265 -11.265 -11.262 -11.245 -11.245 -11.244 -11.243 -11.231
  1 B1    1 A1    2 A1    2 B1    3 A1    4 A1    3 B1    5 A1                 
-11.215 -11.215  -1.177  -1.114  -1.071  -1.004  -0.962  -0.884
  4 B1    6 A1    7 A1    8 A1    5 B1    9 A1    6 B1   10 A1                 
 -0.849  -0.753  -0.747  -0.710  -0.681  -0.631  -0.627  -0.575
  7 B1   11 A1   12 A1    8 B1   13 A1   14 A1    9 B1   10 B1                 
 -0.557  -0.532  -0.532  -0.530  -0.513  -0.480  -0.451  -0.407
 15 A1   11 B1   16 A1    1 B2   12 B1   17 A1    2 B2    1 A2                 
 -0.301  -0.261
  3 B2    2 A2                                                                 
 -- Virtual --                   
  0.027   0.031   0.033   0.038   0.043   0.044   0.059   0.062
 18 A1   13 B1   19 A1    4 B2   20 A1   14 B1   21 A1   15 B1                 
  0.067   0.079   0.084   0.091   0.096   0.104   0.104   0.107
  3 A2   22 A1    5 B2   23 A1    4 A2   24 A1    6 B2   16 B1                 
  0.118   0.122   0.123   0.123   0.126   0.129   0.135   0.137
 17 B1   25 A1   18 B1    7 B2    5 A2   26 A1   27 A1   19 B1                 
  0.141   0.143   0.152   0.160   0.162   0.163   0.164   0.167
 28 A1   20 B1    8 B2    9 B2   29 A1    6 A2   21 B1   30 A1                 
  0.173   0.182   0.188   0.190   0.205   0.206   0.218   0.222
 22 B1   31 A1   10 B2   32 A1   23 B1    7 A2   33 A1   24 B1                 
  0.230   0.233   0.241   0.247   0.258   0.263   0.273   0.273
 11 B2   34 A1   35 A1   25 B1   26 B1   36 A1   12 B2   37 A1                 
  0.274   0.276   0.279   0.284   0.290   0.298   0.301   0.311
 27 B1   13 B2    8 A2   38 A1   28 B1   39 A1   29 B1   14 B2                 
  0.317   0.317   0.330   0.330   0.335   0.345   0.346   0.350
 40 A1    9 A2   30 B1   41 A1   42 A1   31 B1   15 B2   43 A1                 
  0.351   0.355   0.365   0.366   0.381   0.381   0.382   0.390
 10 A2   32 B1   33 B1   44 A1   34 B1   45 A1   16 B2   11 A2                 
  0.390   0.406   0.412   0.414   0.424   0.426   0.430   0.434
 46 A1   17 B2   12 A2   47 A1   18 B2   35 B1   48 A1   36 B1                 
  0.437   0.449   0.450   0.454   0.462   0.463   0.465   0.477
 13 A2   19 B2   49 A1   20 B2   50 A1   14 A2   21 B2   37 B1                 
  0.485   0.485   0.488   0.490   0.493   0.499   0.503   0.503
 51 A1   38 B1   52 A1   39 B1   40 B1   41 B1   15 A2   53 A1                 
  0.505   0.506   0.512   0.519   0.530   0.535   0.537   0.544
 54 A1   22 B2   55 A1   42 B1   43 B1   23 B2   56 A1   44 B1                 
  0.551   0.553   0.556   0.557   0.562   0.569   0.570   0.577
 57 A1   58 A1   59 A1   45 B1   16 A2   60 A1   46 B1   24 B2                 
  0.583   0.588   0.603   0.608   0.613   0.614   0.628   0.631
 61 A1   17 A2   62 A1   25 B2   47 B1   63 A1   48 B1   26 B2                 
  0.649   0.658   0.672   0.685   0.688   0.695   0.695   0.700
 18 A2   19 A2   49 B1   50 B1   64 A1   51 B1   27 B2   65 A1                 
  0.705   0.715   0.719   0.736   0.736   0.744   0.746   0.751
 66 A1   52 B1   67 A1   53 B1   28 B2   20 A2   68 A1   54 B1                 
  0.757   0.763   0.764   0.769   0.787   0.787   0.804   0.805
 69 A1   55 B1   70 A1   56 B1   71 A1   29 B2   57 B1   21 A2                 
  0.812   0.825   0.831   0.840   0.840   0.844   0.864   0.867
 72 A1   22 A2   73 A1   58 B1   30 B2   23 A2   59 B1   31 B2                 
  0.872   0.881   0.887   0.888   0.889   0.896   0.902   0.906
 74 A1   24 A2   75 A1   32 B2   60 B1   76 A1   61 B1   33 B2                 
  0.908   0.919   0.926   0.929   0.934   0.942   0.952   0.953
 77 A1   34 B2   25 A2   78 A1   62 B1   79 A1   63 B1   35 B2                 
  0.954   0.963   0.964   0.969   0.981   0.987   0.988   1.006
 26 A2   80 A1   36 B2   64 B1   37 B2   27 A2   81 A1   65 B1                 
  1.008   1.011   1.017   1.026   1.028   1.038   1.038   1.048
 28 A2   82 A1   38 B2   66 B1   83 A1   67 B1   29 A2   84 A1                 
  1.052   1.064   1.065   1.073   1.075   1.080   1.080   1.081
 30 A2   85 A1   39 B2   68 B1   40 B2   86 A1   31 A2   69 B1                 
  1.095   1.097   1.107   1.109   1.116   1.130   1.137   1.139
 41 B2   87 A1   70 B1   42 B2   88 A1   89 A1   71 B1   43 B2                 
  1.139   1.145   1.159   1.174   1.174   1.175   1.177   1.181
 72 B1   32 A2   90 A1   91 A1   73 B1   44 B2   92 A1   74 B1                 
  1.188   1.197   1.199   1.199   1.200   1.205   1.209   1.222
 33 A2   75 B1   34 A2   76 B1   93 A1   94 A1   95 A1   77 B1                 
  1.235   1.236   1.245   1.247   1.255   1.263   1.277   1.279
 96 A1   45 B2   97 A1   78 B1   35 A2   46 B2   47 B2   98 A1                 
  1.281   1.282   1.294   1.307   1.326   1.338   1.348   1.348
 36 A2   79 B1   99 A1   80 B1   81 B1  100 A1   37 A2   82 B1                 
  1.355   1.370   1.374   1.388   1.389   1.396   1.400   1.410
101 A1  102 A1   83 B1   84 B1   48 B2   38 A2  103 A1  104 A1                 
  1.414   1.429   1.432   1.440   1.449   1.450   1.463   1.474
105 A1   49 B2   85 B1   50 B2   86 B1  106 A1   39 A2   51 B2                 
  1.480   1.502   1.506   1.508   1.513   1.525   1.528   1.554
107 A1   87 B1   40 A2   88 B1  108 A1   41 A2   89 B1   52 B2                 
  1.568   1.596   1.602   1.607   1.619   1.622   1.626   1.627
109 A1   53 B2  110 A1   90 B1   91 B1  111 A1   42 A2   54 B2                 
  1.675   1.677   1.678   1.694   1.708   1.708   1.716   1.739
 43 A2  112 A1   92 B1   44 A2  113 A1   55 B2   56 B2   93 B1                 
  1.742   1.743   1.763   1.773   1.785   1.798   1.815   1.830
114 A1   45 A2   94 B1  115 A1   95 B1  116 A1   46 A2   96 B1                 
  1.831   1.833   1.856   1.862   1.866   1.880   1.885   1.901
117 A1   57 B2   97 B1   47 A2   58 B2  118 A1   59 B2   98 B1                 
  1.906   1.915   1.922   1.928   1.938   1.943   1.945   1.957
 48 A2  119 A1   60 B2  120 A1   99 B1   61 B2  100 B1   49 A2                 
  1.959   1.974   1.984   1.994   2.005   2.012   2.026   2.038
121 A1  101 B1  102 B1  122 A1  123 A1  103 B1  124 A1   62 B2                 
  2.039   2.039   2.058   2.069   2.070   2.081   2.083   2.092
 50 A2  125 A1   51 A2   63 B2  126 A1  127 A1  104 B1  128 A1                 
  2.121   2.124   2.144   2.148   2.164   2.170   2.175   2.176
 64 B2  105 B1  106 B1  129 A1  107 B1   52 A2   65 B2  108 B1                 
  2.193   2.195   2.205   2.217   2.222   2.245   2.245   2.259
 66 B2  130 A1   53 A2  109 B1  131 A1   54 A2   67 B2  110 B1                 
  2.296   2.308   2.308   2.312   2.317   2.323   2.339   2.340
111 B1  132 A1   68 B2  112 B1  133 A1   55 A2   69 B2  113 B1                 
  2.343   2.360   2.367   2.392   2.403   2.408   2.441   2.460
 56 A2  134 A1   70 B2  135 A1   57 A2  114 B1  136 A1  137 A1                 
  2.469   2.474   2.502   2.506   2.531   2.551   2.570   2.571
115 B1   71 B2  138 A1  116 B1   58 A2  117 B1   72 B2  118 B1                 
  2.589   2.629   2.635   2.657   2.683   2.688   2.713   2.744
139 A1  140 A1  119 B1   59 A2  141 A1  120 B1  121 B1  142 A1                 
  2.762   2.792   2.828   2.834   2.872   2.885   2.967   2.977
 73 B2  143 A1  122 B1   60 A2  123 B1  124 B1  144 A1  145 A1                 
  3.033   3.036   3.054   3.149   3.172   3.178   3.179   3.179
146 A1   74 B2  125 B1  147 A1   61 A2   75 B2  148 A1  126 B1                 
  3.200   3.214   3.254   3.258   3.263   3.292   3.305   3.319
127 B1   62 A2   76 B2  149 A1   63 A2   77 B2  150 A1  128 B1                 
  3.331   3.336   3.357   3.360   3.366   3.372   3.373   3.374
151 A1  129 B1   64 A2   78 B2  152 A1   79 B2   80 B2  130 B1                 
  3.397   3.417   3.423   3.439   3.452   3.465   3.467   3.474
 65 A2  153 A1   81 B2  154 A1   82 B2   66 A2  131 B1   83 B2                 
  3.478   3.499   3.511   3.517   3.526   3.545   3.551   3.560
155 A1   67 A2  132 B1   84 B2   68 A2  156 A1  133 B1   69 A2                 
  3.567   3.584   3.599   3.605   3.610   3.615   3.625   3.642
 85 B2  134 B1  157 A1  135 B1   70 A2  158 A1   86 B2  159 A1                 
  3.644   3.665   3.676   3.689   3.691   3.705   3.719   3.728
 87 B2  160 A1  136 B1   88 B2   71 A2  161 A1  137 B1  138 B1                 
  3.732   3.750   3.773   3.773   3.806   3.816   3.818   3.821
162 A1   72 A2   89 B2  139 B1  163 A1   90 B2  140 B1  164 A1                 
  3.825   3.830   3.853   3.853   3.858   3.881   3.883   3.892
 73 A2  165 A1  166 A1   74 A2   91 B2   92 B2  141 B1  167 A1                 
  3.930   3.936   3.952   3.952   3.967   3.969   3.970   3.992
142 B1   75 A2  168 A1  143 B1  169 A1  144 B1   93 B2   76 A2                 
  3.995   4.014   4.015   4.023   4.041   4.045   4.055   4.076
170 A1   94 B2  171 A1  145 B1  146 B1  172 A1   77 A2  173 A1                 
  4.093   4.095   4.101   4.107   4.121   4.140   4.159   4.163
174 A1  175 A1   95 B2  147 B1  148 B1   78 A2  149 B1   96 B2                 
  4.165   4.176   4.191   4.200   4.217   4.233   4.259   4.260
176 A1  177 A1   79 A2  150 B1   97 B2   80 A2  178 A1  151 B1                 
  4.269   4.277   4.281   4.299   4.310   4.311   4.321   4.321
 81 A2   98 B2  179 A1   82 A2   99 B2  180 A1  152 B1   83 A2                 
  4.336   4.351   4.361   4.373   4.381   4.400   4.401   4.404
153 B1  181 A1  182 A1  154 B1  155 B1   84 A2  100 B2  183 A1                 
  4.426   4.427   4.453   4.467   4.488   4.491   4.493   4.519
156 B1  101 B2  184 A1  157 B1  158 B1  185 A1   85 A2  186 A1                 
  4.529   4.555   4.572   4.593   4.607   4.636   4.650   4.664
102 B2   86 A2  159 B1  160 B1  187 A1  188 A1  189 A1  103 B2                 
  4.668   4.681   4.691   4.695   4.716   4.722   4.726   4.746
 87 A2  161 B1  162 B1   88 A2  190 A1  163 B1  104 B2  164 B1                 
  4.758   4.766   4.802   4.817   4.825   4.838   4.861   4.876
191 A1   89 A2  105 B2  192 A1   90 A2  106 B2  165 B1  193 A1                 
  4.914   4.930   4.937   4.972   4.996   4.996   5.008   5.009
166 B1  194 A1  107 B2   91 A2  195 A1  108 B2  196 A1  167 B1                 
  5.018   5.037   5.043   5.072   5.088   5.109   5.116   5.140
109 B2  197 A1   92 A2  168 B1  110 B2   93 A2  111 B2  198 A1                 
  5.140   5.142   5.145   5.163   5.170   5.171   5.194   5.232
112 B2  169 B1   94 A2  170 B1  199 A1   95 A2  113 B2  171 B1                 
  5.248   5.256   5.265   5.277   5.295   5.305   5.327   5.334
 96 A2  114 B2  172 B1  200 A1   97 A2  201 A1  173 B1  115 B2                 
  5.399   5.412   5.465   5.469   5.524   5.531   5.548   5.584
174 B1  202 A1  203 A1   98 A2  175 B1  176 B1  204 A1   99 A2                 
  5.617   5.621   5.648   5.665   5.675   5.678   5.707   5.759
116 B2  177 B1  205 A1  206 A1  178 B1  207 A1  179 B1  180 B1                 
  5.764   5.788   5.793   5.826   5.899   6.028   6.110   6.116
208 A1  117 B2  209 A1  181 B1  182 B1  210 A1  211 A1  183 B1                 
  6.118   6.203   6.252   6.311   6.321   6.404   6.444   6.475
212 A1  213 A1  184 B1  185 B1  214 A1  215 A1  186 B1  216 A1                 
  6.494   6.606   6.642   6.685   6.707   6.743   6.818   6.856
187 B1  217 A1  188 B1  218 A1  189 B1  190 B1  219 A1  191 B1                 
  6.941   6.969   7.160   7.199   7.670  16.550  16.611  17.392
192 B1  220 A1  221 A1  193 B1  194 B1  195 B1  222 A1  223 A1                 
 18.599  18.807  18.887  19.253  20.004  20.437  20.494
224 A1  225 A1  196 B1  226 A1  227 A1  197 B1  198 B1                         

 Occupation and symmetry of molecular orbitals

 Point group: C2v (4 irreducible representations).

                           A1   A2   B1   B2    All 
 ----------------------------------------------------
 All molecular orbitals:
  - Alpha                  227  99   198  117   641 
  - Beta                   227  99   198  117   641 
 ----------------------------------------------------
 Alpha orbitals:
  - Frozen occupied        6    0    4    0     10  
  - Active occupied        11   2    8    3     24  
  - Active virtual         210  97   186  114   607 
  - Frozen virtual         0    0    0    0     0   
 ----------------------------------------------------
 Beta orbitals:
  - Frozen occupied        6    0    4    0     10  
  - Active occupied        11   2    8    3     24  
  - Active virtual         210  97   186  114   607 
  - Frozen virtual         0    0    0    0     0   
 ----------------------------------------------------

 Import integrals:   CPU 0.00 s  wall 0.00 s

 Import integrals:   CPU 658.53 s  wall 49.12 s


 MP2  CPU 118.70 s  wall 24.49 s
Running a double precision version
           RI-CC2 T amplitudes will be solved using DIIS.

           Start     Size      MaxIter   EConv     TConv     
           3         7         100       1.00e-10  1.00e-09  
 ------------------------------------------------------------------------------
           Energy (a.u.)   Ediff      Tdiff       Comment
 ------------------------------------------------------------------------------
        -385.0153422220                           
     1  -385.0149305536   4.12e-04   1.42e+00     
     2  -385.0293209441   1.44e-02   4.94e-02     
     3  -385.0308688068   1.55e-03   2.84e-02     
     4  -385.0324793556   1.61e-03   9.90e-03     Switched to DIIS steps.
     5  -385.0334648620   9.86e-04   9.78e-03     
     6  -385.0336774270   2.13e-04   3.55e-03     
     7  -385.0336661487   1.13e-05   1.71e-03     
     8  -385.0336563944   9.75e-06   8.67e-04     
     9  -385.0336604976   4.10e-06   2.71e-04     
    10  -385.0336622885   1.79e-06   9.84e-05     
    11  -385.0336623261   3.76e-08   3.89e-05     
    12  -385.0336624379   1.12e-07   1.63e-05     
    13  -385.0336622922   1.46e-07   7.52e-06     
    14  -385.0336622466   4.55e-08   3.04e-06     
    15  -385.0336622339   1.27e-08   1.91e-06     
    16  -385.0336622068   2.71e-08   1.27e-06     
    17  -385.0336622088   2.03e-09   4.34e-07     
    18  -385.0336622089   1.47e-10   3.86e-07     
    19  -385.0336622084   5.05e-10   1.13e-07     
    20  -385.0336622089   4.80e-10   6.18e-08     
    21  -385.0336622089   2.01e-11   2.52e-08     
    22  -385.0336622089   4.32e-12   1.26e-08     
    23  -385.0336622088   5.03e-11   4.41e-09     
    24  -385.0336622089   2.15e-11   2.50e-09     
    25  -385.0336622089   9.14e-12   1.44e-09     
    26  -385.0336622089   2.88e-12   5.46e-10     
 ------------------------------------------------------------------------------
        -385.0336622089                           CC2 T converged.

End of double precision
 SCF energy                 = -383.40885490
 MP2 energy                 = -385.01534222
 CC2 correlation energy    =   -1.62480731
 CC2 total energy          = -385.03366221

 CC2  T1^2 = 0.0225  T2^2 = 0.6002  Leading amplitudes:

 Amplitude    Orbitals with energies
 -0.0329       1 (A2) A                  ->    3 (A2) A                   
              -0.4073                          0.0671                     
 -0.0329       1 (A2) B                  ->    3 (A2) B                   
              -0.4073                          0.0671                     
 -0.0305       3 (B2) A                  ->    4 (B2) A                   
              -0.3008                          0.0379                     
 -0.0305       3 (B2) B                  ->    4 (B2) B                   
              -0.3008                          0.0379                     

 Amplitude    Orbitals with energies
 -0.0718       3 (B2) A      3 (B2) B    ->    4 (B2) A      4 (B2) B     
              -0.3008       -0.3008            0.0379        0.0379       
  0.0718       3 (B2) A      3 (B2) B    ->    4 (B2) B      4 (B2) A     
              -0.3008       -0.3008            0.0379        0.0379       
  0.0718       3 (B2) B      3 (B2) A    ->    4 (B2) A      4 (B2) B     
              -0.3008       -0.3008            0.0379        0.0379       
 -0.0718       3 (B2) B      3 (B2) A    ->    4 (B2) B      4 (B2) A     
              -0.3008       -0.3008            0.0379        0.0379       

 Computing CC2 intermediates for later calculations in double precision
 Finished.

Running a double precision version
           RI-CC2 Lambda amplitudes will be solved using DIIS.
           Start     Size      MaxIter   EConv     LConv     
           3         7         100       1.00e-10  1.00e-09  
 ------------------------------------------------------------------------------
            Enorm      Ldiff       Comment
 ------------------------------------------------------------------------------
     1     2.32e-02   3.48e-03     
     2     1.06e-02   4.07e-05     
     3     7.41e-03   4.18e-05     
     4     2.03e-03   4.61e-05     Switched to DIIS steps.
     5     1.16e-03   3.35e-06     
     6     4.34e-04   2.64e-05     
     7     1.59e-04   2.04e-05     
     8     6.30e-05   1.26e-05     
     9     2.65e-05   6.92e-06     
    10     1.48e-05   2.36e-06     
    11     5.61e-06   1.35e-06     
    12     2.28e-06   2.10e-07     
    13     1.13e-06   1.30e-07     
    14     5.17e-07   1.16e-09     
    15     2.83e-07   8.64e-09     
    16     1.34e-07   5.76e-09     
    17     7.39e-08   4.32e-09     
    18     2.95e-08   1.55e-09     
    19     1.35e-08   2.07e-09     
    20     6.97e-09   8.45e-10     
    21     2.92e-09   6.48e-10     
    22     1.60e-09   1.09e-10     
    23     9.17e-10   4.94e-11     
    24     3.42e-10   1.92e-12     
    25     1.81e-10   1.02e-11     
    26     9.34e-11   7.85e-12     
 ------------------------------------------------------------------------------
                                   CC2 Lambda converged.


 CC2  CPU 63133.75 s  wall 4220.62 s
        Solving for EOMEA-CC2/MP2 B2 transitions.

Running a double precision version
      RI-EOMEA-CC2/MP2 right amplitudes will be solved using Davidson.
        Amplitudes will be solved using standard  algorithm.
     Hard-coded thresholds: 
     LinDepThresh=1.00e-15  NormThresh=1.00e-06  ReorthogonThresh=1.00e-02

      Roots     MaxVec    MaxIter   Precond   Conv      Shift    
      1         120       60        1         1.00e-10  0.00e+00  
 ------------------------------------------------------------------------------
      Iter ConvRoots NVecs ResNorm^2 Current eigenvalues (eV)
 ------------------------------------------------------------------------------
      0    0      1     3.51e-02   2.4152   
      1    0      2     2.91e-02   2.0590   
      2    0      3     3.68e-02   1.4963   
      3    0      4     3.20e-02   0.0189   
      4    0      5     4.89e-03   -0.8680   
      5    0      6     3.71e-04   -0.9665   
      6    0      7     1.69e-04   -0.9771   
      7    0      8     1.67e-05   -0.9794   
      8    0      9     4.65e-06   -0.9800   
      9    0      10    4.96e-07   -0.9803   
      10   0      11    7.55e-08   -0.9804   
      11   0      12    6.78e-09   -0.9804   
      12   0      13    2.75e-09   -0.9804   
      13   0      14    4.34e-10   -0.9804   
      14   1      15    4.36e-11   -0.9804*  

     Davidson procedure converged

 EOMEA transition 1/B2
 Total energy = -385.06969090 a.u.  Excitation energy = -0.9804 eV.
 R1^2 = 0.9064  R2^2 = 0.0936  Res^2 = 4.36e-11
 Conv-d = yes

 Amplitude    Transitions between orbitals
 -0.9351       infty       ->    4 (B2) B                   
  0.0960       infty       ->    5 (B2) B                   
  0.0912       infty       ->    6 (B2) B                   
  0.0739       infty       ->    8 (B2) B                   

              Summary of significant orbitals:

               Number  Type             Irrep      Energy
               38      Vir  Beta        4 (B2)      0.0379
               45      Vir  Beta        5 (B2)      0.0844
               49      Vir  Beta        6 (B2)      0.1043
               61      Vir  Beta        8 (B2)      0.1515


Running a double precision version
      RI-EOMEA-CC2/MP2 left amplitudes will be solved using Davidson.
        Amplitudes will be solved using MOM  algorithm.
     Hard-coded thresholds: 
     LinDepThresh=1.00e-15  NormThresh=1.00e-06  ReorthogonThresh=1.00e-02

      Roots     MaxVec    MaxIter   Precond   Conv      Shift    
      1         120       60        1         1.00e-10  0.00e+00  
 ------------------------------------------------------------------------------
      Iter ConvRoots NVecs ResNorm^2 Current eigenvalues (eV)
 ------------------------------------------------------------------------------
      0    0      1     1.24e-03   -0.9804   
      1    0      2     8.71e-04   -0.9804   
      2    0      3     5.76e-05   -0.9804   
      3    0      4     5.73e-06   -0.9804   
      4    0      5     5.52e-07   -0.9804   
      5    0      6     6.65e-08   -0.9804   
      6    0      7     4.09e-08   -0.9804   
      7    0      8     5.75e-09   -0.9804   
      8    0      9     5.25e-10   -0.9804   
      9    1      10    7.99e-11   -0.9804*  

     Davidson procedure converged


 EOMEA-CC2  CPU 862.81 s  wall 84.80 s

 Start computing the transition properties

 ------------------------------------------------------------------------------
 State A: eomea_cc2/b: 1/B2
 State B: cc2: 0/A1

       ***    Dyson orbital calculation   *** 

 EOM-EA-CC2 state  1/B2 -- Reference  transition
 Energy difference = -0.9804 eV.

 Left Dyson orbital norm is 0.9035

Left beta Dyson orbital in the MO basis (canonical Q-Chem's ordering):
0  -5.2041e-17 
1  9.1626e-18  
2  6.3010e-17  
3  1.4122e-16  
4  1.4848e-16  
5  1.8229e-16  
6  -3.2000e-16 
7  1.0025e-16  
8  -3.5497e-17 
9  -1.2004e-16 
10 1.0634e-16  
11 -3.7861e-17 
12 -1.9009e-17 
13 1.3602e-16  
14 -2.5394e-16 
15 1.0265e-16  
16 -2.1068e-16 
17 1.4193e-16  
18 -2.0599e-16 
19 -1.1266e-16 
20 -1.3833e-16 
21 1.4350e-16  
22 -8.2931e-17 
23 -4.2458e-16 
24 1.6017e-16  
25 -5.4404e-16 
26 -1.1661e-16 
27 -1.5862e-02 
28 -3.9990e-16 
29 -1.4869e-16 
30 1.6251e-02  
31 2.4509e-16  
32 -3.2970e-02 
33 2.7427e-16  
34 8.6524e-16  
35 -3.4626e-15 
36 8.2967e-16  
37 -9.8347e-01 
38 -2.3426e-15 
39 2.4050e-15  
40 6.2105e-16  
41 6.8941e-16  
42 8.2982e-16  
43 2.0156e-15  
44 9.5997e-02  
45 -2.7739e-15 
46 1.1624e-15  
47 4.6047e-15  
48 9.0355e-02  
49 9.6153e-15  
50 -7.4099e-15 
51 3.6832e-15  
52 -7.1786e-17 
53 3.2311e-02  
54 -1.5936e-15 
55 2.2274e-15  
56 5.5096e-16  
57 8.0587e-16  
58 -1.0689e-15 
59 -2.5887e-15 
60 7.4636e-02  
61 4.1925e-02  
62 -4.2506e-15 
63 -1.6811e-15 
64 -1.2240e-15 
65 -4.9053e-15 
66 -2.3586e-15 
67 -4.3333e-15 
68 -2.1024e-02 
69 1.3011e-15  
70 1.8280e-16  
71 1.0643e-16  
72 -2.7437e-15 
73 -2.3594e-14 
74 -1.5956e-02 
75 -4.5029e-15 
76 6.1270e-15  
77 1.1165e-14  
78 8.3929e-15  
79 3.9657e-15  
80 1.7049e-02  
81 7.0393e-15  
82 5.8073e-15  
83 9.6369e-03  
84 1.8343e-15  
85 -4.0145e-15 
86 -5.8396e-15 
87 1.5659e-15  
88 1.3569e-15  
89 2.6139e-02  
90 -5.9105e-15 
91 -3.4861e-15 
92 1.7686e-15  
93 2.6968e-15  
94 -3.8389e-15 
95 6.3916e-16  
96 -3.3280e-02 
97 6.6744e-16  
98 2.5138e-15  
99 -2.4957e-14 
1001.6137e-14  
1014.0023e-15  
1021.5120e-14  
103-3.9452e-15 
1041.9316e-05  
105-2.0974e-15 
1064.1878e-15  
1073.0003e-03  
108-7.4581e-16 
109-1.6656e-15 
1101.2233e-02  
1111.1255e-14  
112-1.7628e-16 
113-9.7886e-15 
1142.4656e-15  
1151.2654e-02  
116-4.3219e-15 
117-2.2017e-02 
1187.3043e-15  
119-1.4032e-15 
120-1.7329e-02 
1219.3124e-15  
122-7.1238e-15 
123-1.6609e-14 
1241.4251e-15  
1253.2630e-16  
126-1.0863e-15 
127-1.2522e-14 
128-6.7630e-16 
129-3.5462e-15 
1301.0638e-15  
1311.2957e-02  
1328.0447e-15  
1331.1737e-15  
134-1.2336e-14 
1353.4714e-03  
136-1.0069e-14 
137-2.7032e-14 
1385.0271e-16  
139-9.5631e-16 
140-7.6649e-15 
1417.0991e-15  
142-6.1816e-15 
1433.4964e-15  
144-9.5668e-15 
145-2.5186e-03 
146-8.4941e-15 
147-2.3834e-15 
148-4.8881e-15 
149-6.4383e-03 
150-2.5937e-14 
151-9.3601e-16 
152-2.9533e-14 
153-2.0818e-03 
154-8.6099e-15 
155-2.7686e-15 
1565.2694e-15  
1571.3470e-14  
158-1.7114e-14 
159-1.4774e-14 
1604.1337e-03  
1619.2269e-15  
162-3.2489e-15 
1635.1921e-14  
1641.7030e-14  
165-5.2307e-14 
1666.9630e-04  
1675.3850e-15  
1681.0812e-14  
169-2.3136e-14 
1701.3094e-14  
1711.4699e-14  
172-8.2811e-15 
1736.9451e-15  
174-3.6810e-15 
175-2.1028e-02 
1766.0553e-15  
1771.3326e-15  
178-1.9015e-14 
1791.6878e-15  
180-3.3911e-15 
1812.4557e-14  
1821.3081e-03  
1834.9756e-16  
184-9.6677e-15 
185-1.3850e-02 
1868.6361e-15  
187-1.5516e-15 
188-7.8447e-15 
1893.1092e-03  
190-1.3302e-14 
1911.0243e-14  
1925.8075e-14  
1933.5225e-03  
194-1.1636e-14 
1951.9713e-03  
1966.9473e-15  
1971.4424e-15  
1984.3552e-14  
199-5.1432e-16 
200-7.3665e-15 
201-5.8468e-03 
2023.0000e-15  
203-1.4553e-14 
204-6.7868e-03 
205-4.5222e-14 
206-6.9145e-03 
2072.3704e-15  
2082.6995e-15  
2091.5147e-15  
2103.6271e-15  
2111.4433e-15  
2124.7554e-03  
213-1.4917e-14 
214-1.1005e-14 
2153.4771e-14  
216-7.5622e-15 
217-1.4961e-15 
218-2.1438e-15 
219-1.6176e-14 
220-2.5789e-03 
221-4.8967e-16 
222-3.6878e-03 
2239.9835e-15  
224-2.0100e-15 
2252.5812e-14  
226-3.5368e-03 
227-1.3966e-15 
228-2.4429e-14 
2294.1342e-03  
230-9.3622e-16 
2317.0789e-15  
232-3.1250e-15 
233-1.3688e-03 
234-2.8276e-14 
2351.6775e-15  
2361.5085e-14  
237-4.9242e-15 
238-1.5896e-15 
239-4.0733e-03 
2404.3645e-15  
241-1.0869e-14 
242-1.1099e-15 
243-1.0439e-14 
244-2.5813e-15 
245-4.6724e-15 
2463.5801e-15  
2476.3731e-16  
2487.7490e-15  
2491.7773e-14  
250-1.2400e-14 
251-6.2648e-03 
2527.6559e-15  
253-1.3519e-14 
254-8.0722e-16 
2553.9450e-03  
256-2.6196e-04 
2571.0985e-14  
258-8.7750e-16 
259-2.9230e-14 
260-9.2141e-15 
2611.8148e-14  
2623.5430e-14  
2631.9514e-14  
2646.8818e-15  
265-3.7563e-14 
2664.3515e-15  
267-1.4101e-15 
2683.1873e-14  
2696.7926e-14  
2702.5521e-03  
271-6.3127e-15 
272-3.1516e-14 
2736.0329e-15  
2741.2564e-15  
2751.2788e-03  
276-1.2635e-14 
2779.4623e-04  
278-5.1236e-14 
279-1.1381e-14 
2804.9049e-15  
2811.0003e-03  
282-1.3437e-14 
2833.2087e-14  
2847.7373e-17  
285-4.7569e-14 
2861.2296e-14  
287-2.0208e-15 
288-4.3266e-14 
2891.5374e-03  
2901.8304e-15  
2912.1549e-04  
2929.0958e-15  
2934.1741e-14  
294-2.5868e-14 
2958.2458e-16  
2961.4580e-15  
2979.3953e-03  
298-1.2851e-15 
2992.6659e-15  
3003.6905e-15  
3012.7635e-16  
3024.5890e-15  
3031.0474e-02  
3041.2903e-03  
3051.7140e-14  
3067.6550e-15  
3073.8838e-15  
308-7.3810e-15 
3095.4207e-15  
310-1.1921e-15 
311-5.8802e-15 
3123.5277e-15  
313-1.7137e-14 
3143.6203e-15  
3151.0014e-03  
316-1.7646e-14 
3173.7908e-15  
3182.0406e-03  
319-1.0493e-14 
320-3.0370e-04 
3211.5546e-14  
3227.2541e-15  
323-5.8027e-15 
324-2.4629e-03 
3251.5336e-15  
3262.5873e-14  
327-2.2994e-03 
3281.7890e-14  
329-2.1803e-15 
3305.7770e-15  
331-2.1887e-14 
3321.4034e-14  
333-8.0558e-15 
334-7.3967e-15 
3352.0313e-14  
3366.8404e-15  
337-8.4877e-04 
3381.7059e-15  
3398.8656e-15  
340-1.8407e-15 
3411.9017e-03  
342-9.4964e-15 
343-2.6541e-15 
344-1.6011e-16 
3451.4463e-14  
3461.7124e-03  
3473.0491e-14  
3483.9097e-14  
349-1.0218e-15 
3502.0679e-14  
3515.5616e-15  
3521.6483e-03  
353-1.8468e-14 
3543.2168e-04  
3551.5018e-14  
356-2.9860e-15 
3571.5703e-14  
358-7.5897e-15 
359-1.1250e-15 
360-8.6238e-04 
361-7.4419e-16 
362-9.7458e-15 
363-7.4417e-15 
364-1.2602e-03 
3659.7727e-15  
3666.6313e-15  
3672.4731e-15  
368-8.3784e-04 
369-8.6183e-15 
3702.5110e-15  
3711.1858e-14  
372-2.0914e-03 
3734.6240e-15  
374-3.0299e-15 
375-5.9955e-15 
3769.6224e-15  
3779.7787e-15  
378-1.4332e-15 
379-1.1025e-03 
3801.1024e-14  
3811.4296e-14  
3823.9400e-15  
383-6.1226e-14 
3843.7879e-04  
385-1.7708e-14 
386-3.8416e-15 
387-9.4574e-17 
3887.7978e-15  
3897.7215e-15  
3901.1799e-15  
391-1.9082e-14 
392-2.1511e-14 
3938.0723e-15  
3947.0757e-04  
3951.0002e-16  
3961.2610e-14  
3978.1752e-15  
3988.5365e-15  
399-4.4690e-14 
4002.6800e-15  
4013.1672e-15  
4028.8704e-15  
4034.9954e-05  
404-4.0696e-15 
405-1.3313e-14 
406-2.8257e-16 
4071.8278e-03  
4082.0242e-15  
4091.5094e-14  
4106.5384e-15  
411-1.1592e-15 
412-3.2283e-03 
4132.0833e-15  
414-9.2851e-17 
4151.5246e-05  
416-3.5816e-15 
4171.2390e-14  
418-1.9505e-15 
419-1.5422e-14 
4205.2565e-16  
421-1.6377e-04 
4223.2958e-16  
4234.7236e-04  
424-4.6400e-04 
425-1.5215e-14 
4263.8088e-16  
4278.6560e-15  
4281.0060e-03  
4296.7695e-15  
4301.4907e-04  
4311.4200e-16  
432-1.6111e-14 
433-1.3873e-03 
4341.1699e-14  
435-9.3684e-17 
436-2.0773e-14 
4372.0131e-04  
438-1.4965e-15 
4392.7631e-15  
4401.2076e-14  
441-5.1842e-16 
442-7.3645e-05 
443-1.5254e-14 
444-3.5303e-15 
445-2.9682e-14 
4465.8553e-16  
447-3.4631e-15 
448-2.2523e-04 
449-6.9747e-15 
4502.4440e-03  
451-8.1584e-15 
452-3.6752e-15 
4538.2411e-04  
454-1.2189e-15 
455-2.1743e-15 
456-2.0532e-14 
4573.6870e-14  
458-4.2100e-15 
459-1.6367e-15 
4609.4592e-04  
461-5.1089e-15 
4624.7208e-15  
4632.6223e-03  
464-1.4551e-14 
4653.4904e-15  
4665.2614e-15  
4673.3262e-15  
468-5.9757e-16 
4697.1354e-16  
4707.1311e-04  
4713.9629e-04  
472-2.0804e-14 
4733.4188e-15  
474-1.3897e-14 
475-1.1259e-15 
476-1.7319e-15 
477-2.8718e-16 
4783.6142e-15  
479-1.8903e-15 
4801.2284e-04  
4816.5049e-18  
482-9.4798e-16 
483-7.9334e-04 
484-1.5574e-15 
485-2.1979e-14 
486-3.9766e-15 
4872.4387e-15  
488-2.7425e-16 
489-1.9172e-15 
4906.8444e-15  
491-9.7589e-15 
492-3.9620e-05 
4935.2012e-15  
494-6.6082e-15 
4953.4198e-15  
4969.1226e-15  
4977.4432e-05  
498-3.8047e-15 
499-4.6862e-15 
500-1.0835e-15 
5012.7466e-14  
502-1.6784e-04 
5031.6943e-15  
5042.6415e-15  
5052.4747e-14  
5062.1384e-15  
5071.1961e-04  
508-4.7086e-15 
509-9.0977e-16 
510-1.6157e-05 
5116.9114e-15  
512-1.7959e-14 
5135.7984e-16  
5141.1004e-15  
515-4.9674e-15 
5161.0080e-14  
5177.8707e-15  
518-7.1098e-15 
5191.2262e-15  
5201.6349e-04  
5212.4390e-15  
5221.6765e-14  
523-5.6013e-05 
5241.7667e-15  
525-1.3910e-14 
5267.5729e-15  
5271.8912e-17  
528-2.7620e-15 
5293.5332e-15  
530-1.6577e-04 
531-4.9253e-15 
5327.8812e-15  
5332.0454e-14  
534-3.3602e-15 
535-1.1512e-15 
536-3.8369e-16 
537-5.1483e-04 
538-1.7921e-15 
5391.8123e-14  
5405.9326e-15  
5413.7654e-15  
542-5.6148e-16 
543-8.9780e-15 
5447.6178e-05  
5457.5350e-15  
5463.4307e-15  
547-1.0934e-15 
548-3.2785e-05 
5496.1017e-15  
5501.0753e-15  
551-1.0193e-04 
5523.1965e-15  
5531.0588e-15  
554-1.0270e-14 
555-3.3473e-15 
556-1.3909e-04 
5571.6124e-16  
558-4.3777e-15 
5591.8463e-04  
560-4.9531e-16 
5618.6272e-15  
562-3.3691e-05 
5634.8751e-15  
564-2.1654e-15 
5651.4563e-14  
5661.9595e-04  
567-1.2008e-15 
5681.1870e-05  
5695.0291e-16  
5701.2111e-04  
5711.3919e-14  
5725.7299e-16  
573-2.9850e-15 
574-7.3032e-15 
575-1.1236e-15 
576-1.2018e-06 
577-6.3936e-15 
578-1.5114e-15 
579-8.2049e-05 
5804.2388e-15  
5811.2744e-15  
5822.2414e-15  
583-1.1432e-15 
5844.7679e-15  
5853.0321e-05  
5861.8376e-14  
587-2.8866e-15 
588-3.1137e-15 
5891.1950e-15  
5904.5310e-15  
5919.3035e-15  
5921.6528e-15  
593-1.6871e-15 
594-3.6691e-05 
595-4.2944e-15 
5961.2789e-15  
5978.8775e-15  
598-3.5238e-15 
5991.3115e-16  
6005.7170e-15  
6011.7573e-15  
6022.1676e-15  
603-2.5997e-05 
604-3.8894e-15 
605-2.6201e-15 
606-7.9732e-15 
607-6.8037e-16 
608-6.5988e-16 
6094.7684e-15  
610-7.0506e-15 
611-7.2057e-16 
612-1.9548e-15 
613-4.6571e-15 
614-5.4478e-15 
6153.1387e-15  
6168.8163e-15  
6175.3141e-15  
618-9.4291e-15 
619-2.2543e-15 
6204.1427e-15  
621-2.2249e-15 
6225.5040e-15  
623-8.3145e-15 
6244.2905e-15  
625-2.5625e-14 
6264.0751e-15  
627-3.2861e-15 
6289.4852e-16  
6296.6818e-15  
630-7.8648e-15 
6313.2651e-14  
6322.7850e-15  
633-4.9702e-15 
634-3.8076e-15 
6353.1647e-15  
636-5.9364e-15 
6376.7538e-15  
638-1.4047e-14 
6391.8565e-14  
640-5.9267e-15 

Decomposition over AOs for the left beta Dyson orbital:
-1.54038684e-11
-1.40285850e-11
-5.81593607e-11
2.72469267e-08
-2.01439747e-08
-5.65246990e-12
-1.15712447e-01
3.41588253e-11
1.00440578e-10
-1.59508457e-01
-2.23296500e-10
-2.31762961e-08
-1.69716361e-01
3.57013899e-08
2.75605343e-09
-1.55372028e-01
-6.63739745e-09
-8.71788120e-03
-5.68357698e-03
1.46978675e-12
-4.58287982e-12
3.37734349e-12
-2.48508342e-02
-1.36048267e-02
-7.38667608e-11
3.59155844e-10
3.01394733e-10
7.01829392e-03
2.39020551e-03
1.27218323e-09
4.35532086e-09
-4.96958262e-09
-2.72026015e-03
1.14341118e-03
7.70295622e-04
6.33331825e-13
-1.06244355e-11
-1.06233284e-11
4.01873407e-12
1.31264230e-03
8.84933760e-04
1.03785545e-03
-5.08821959e-10
-4.15868998e-10
7.41508958e-10
-3.48723305e-11
3.90155941e-12
3.47885756e-11
1.97507103e-11
7.53357104e-09
3.24445814e-09
-1.34221309e-11
1.34823897e-01
1.07260822e-11
-5.00248596e-10
1.84997417e-01
1.64251313e-10
8.36490149e-09
2.11650205e-01
8.59389186e-10
2.61154922e-09
1.83315296e-01
-1.03967651e-10
-3.75625764e-03
-6.92256925e-03
8.53834708e-13
4.11605195e-12
-3.30110742e-12
-1.15338755e-02
-1.84837260e-02
-1.73802966e-10
-4.89887295e-10
1.40791422e-10
-6.69973456e-03
-8.73843661e-03
-1.08209936e-08
-6.74928724e-09
6.87922731e-09
-1.69751224e-04
-1.21179685e-03
1.85369416e-03
1.12878282e-12
5.72606995e-13
-5.93841140e-13
-1.06190556e-11
-8.98032526e-04
-4.58385833e-04
-1.89607538e-03
1.32489899e-10
9.63686000e-11
-2.02389563e-10
4.55848949e-11
-1.35381925e-11
-3.19640612e-10
-2.07639187e-08
8.59268548e-10
1.48629281e-12
4.25975295e-03
-3.93669939e-12
-2.89534513e-10
1.29312760e-02
5.89984344e-11
-2.70861206e-09
1.30731772e-02
1.78776784e-09
1.51164745e-03
-5.46575052e-04
7.78867266e-12
2.80288768e-12
-9.25793698e-12
-5.09539650e-06
-1.05208557e-04
1.29096827e-10
1.11470046e-10
-1.75620943e-10
2.56633322e-12
-2.94148860e-11
1.54031142e-11
-4.93934963e-09
2.48876643e-09
1.83613096e-11
4.28848199e-02
2.40690158e-11
2.71424709e-10
5.71142847e-02
6.31802932e-11
-6.70993929e-09
3.66625715e-02
-5.73361582e-10
-1.81254802e-09
4.81336833e-02
-2.23409350e-09
-9.25739118e-03
1.02976714e-02
-2.30343758e-12
2.73844969e-13
2.47304494e-12
-2.32076168e-02
2.35659129e-02
-3.30972779e-11
-4.57267795e-10
-1.09755876e-10
-1.64503658e-02
-1.38182982e-03
-1.41183278e-10
-1.12242779e-08
4.17508051e-10
-1.54641089e-03
2.39634008e-04
2.72512999e-03
[...]
 289  C 5   f 4     -0.00164   0.00000  -0.00014
 290  C 5   f 5     -0.00091   0.00000  -0.00070
 291  C 5   f 6      0.00085  -0.00000   0.00164
 292  C 5   f 7      0.00068   0.00000  -0.00062
 293  C 5   f 1     -0.00000   0.00032  -0.00000
 294  C 5   f 2     -0.00000   0.00471   0.00000
 295  C 5   f 3     -0.00000   0.00204   0.00000
 296  C 5   f 4     -0.00864  -0.00000  -0.00644
 297  C 5   f 5     -0.00052   0.00000  -0.05735
 298  C 5   f 6      0.01367   0.00000  -0.00824
 299  C 5   f 7     -0.01646  -0.00000   0.00281
 300  H 4   s       -0.00143   0.00000  -0.00066
 301  H 4   s        0.11498   0.00000   0.11736
 302  H 4   s        1.30788   0.00000   0.78575
 303  H 4   s       -0.79039   0.00000  -2.05393
 304  H 4   px      -0.00059   0.00000  -0.00039
 305  H 4   py      -0.00000  -0.00140  -0.00000
 306  H 4   pz      -0.00002  -0.00000   0.00022
 307  H 4   px      -0.02008   0.00000  -0.03965
 308  H 4   py       0.00000  -0.00301   0.00000
 309  H 4   pz       0.03214   0.00000   0.01504
 310  H 4   px      -0.21365  -0.00000  -0.35700
 311  H 4   py      -0.00000   0.01157  -0.00000
 312  H 4   pz       0.15163   0.00000   0.04080
 313  H 4   d 1      0.00000   0.00023  -0.00000
 314  H 4   d 2      0.00000  -0.00054  -0.00000
 315  H 4   d 3      0.00013  -0.00000   0.00007
 316  H 4   d 4     -0.00210  -0.00000  -0.00143
 317  H 4   d 5      0.00075  -0.00000   0.00066
 318  H 4   d 1      0.00000  -0.00437   0.00000
 319  H 4   d 2      0.00000  -0.00208   0.00000
 320  H 4   d 3      0.01478   0.00000  -0.00642
 321  H 4   d 4      0.01170   0.00000  -0.01925
 322  H 4   d 5     -0.00043  -0.00000   0.00733
 323  C 6   s       -0.00103  -0.00000   0.00290
 324  C 6   s       -0.00812  -0.00000   0.01956
 325  C 6   s       -0.00873  -0.00000   0.01535
 326  C 6   s        2.06506   0.00000  -0.15080
 327  C 6   s       -3.97384  -0.00000 -11.43498
 328  C 6   px      -0.00747  -0.00000   0.01196
 329  C 6   py      -0.00000  -0.11340  -0.00000
 330  C 6   pz       0.00010  -0.00000   0.00403
 331  C 6   px      -0.01756  -0.00000  -0.02020
 332  C 6   py      -0.00000  -0.16187   0.00000
 333  C 6   pz      -0.00273  -0.00000  -0.02101
 334  C 6   px      -0.69067   0.00000  -0.33611
 335  C 6   py       0.00000  -0.29964   0.00000
 336  C 6   pz      -0.91952   0.00000   0.46913
 337  C 6   px       0.23923   0.00000   2.12961
 338  C 6   py       0.00000  -0.51993   0.00000
 339  C 6   pz      -2.92114  -0.00000   2.78886
 340  C 6   d 1     -0.00000  -0.00347  -0.00000
 341  C 6   d 2      0.00000   0.00751  -0.00000
 342  C 6   d 3      0.00021   0.00000   0.00002
 343  C 6   d 4     -0.00006  -0.00000   0.00005
 344  C 6   d 5     -0.00059  -0.00000   0.00003
 345  C 6   d 1      0.00000  -0.01429   0.00000
 346  C 6   d 2      0.00000   0.02104   0.00000
 347  C 6   d 3      0.01757  -0.00000   0.05005
 348  C 6   d 4     -0.00579   0.00000  -0.03056
 349  C 6   d 5      0.00993   0.00000  -0.07533
 350  C 6   d 1     -0.00000  -0.02604   0.00000
 351  C 6   d 2      0.00000   0.01698   0.00000
 352  C 6   d 3     -0.97849  -0.00000   0.55904
 353  C 6   d 4      0.06523   0.00000  -0.32706
 354  C 6   d 5      0.23308   0.00000  -0.62444
 355  C 6   f 1     -0.00000   0.00003   0.00000
 356  C 6   f 2      0.00000  -0.00117  -0.00000
 357  C 6   f 3     -0.00000  -0.00171  -0.00000
 358  C 6   f 4     -0.00007   0.00000   0.00061
 359  C 6   f 5     -0.00221   0.00000   0.00167
 360  C 6   f 6      0.00101  -0.00000  -0.00125
 361  C 6   f 7      0.00072   0.00000  -0.00266
 362  C 6   f 1      0.00000   0.00020   0.00000
 363  C 6   f 2     -0.00000  -0.00112  -0.00000
 364  C 6   f 3      0.00000  -0.00312   0.00000
 365  C 6   f 4     -0.02752  -0.00000   0.04250
 366  C 6   f 5      0.01253  -0.00000   0.03633
 367  C 6   f 6      0.00443   0.00000  -0.01529
 368  C 6   f 7     -0.01067   0.00000  -0.00899
 369  H 5   s       -0.00409  -0.00000   0.00273
 370  H 5   s        0.01477  -0.00000   0.22566
 371  H 5   s       -0.51320  -0.00000   2.58098
 372  H 5   s        0.15584  -0.00000  -3.79088
 373  H 5   px       0.00082   0.00000  -0.00195
 374  H 5   py       0.00000  -0.00428   0.00000
 375  H 5   pz       0.00032   0.00000   0.00007
 376  H 5   px       0.00834   0.00000  -0.07796
 377  H 5   py      -0.00000  -0.01056  -0.00000
 378  H 5   pz      -0.00537   0.00000  -0.02065
 379  H 5   px       0.10599   0.00000  -0.48785
 380  H 5   py       0.00000   0.03139  -0.00000
 381  H 5   pz       0.10524   0.00000  -0.11362
 382  H 5   d 1      0.00000   0.00148   0.00000
 383  H 5   d 2      0.00000   0.00064   0.00000
 384  H 5   d 3     -0.00014   0.00000  -0.00215
 385  H 5   d 4      0.00002  -0.00000   0.00155
 386  H 5   d 5     -0.00040  -0.00000   0.00227
 387  H 5   d 1      0.00000  -0.00525   0.00000
 388  H 5   d 2     -0.00000  -0.00046  -0.00000
 389  H 5   d 3      0.01448   0.00000  -0.01568
 390  H 5   d 4      0.00369  -0.00000   0.01240
 391  H 5   d 5     -0.01075   0.00000   0.01391
 392  C 7   s        0.00187  -0.00000  -0.00026
 393  C 7   s       -0.00231  -0.00000   0.00001
 394  C 7   s        0.00248  -0.00000  -0.00179
 395  C 7   s        0.51976   0.00000  -0.27313
 396  C 7   s        1.48722   0.00000   3.93192
 397  C 7   px       0.00556  -0.00000  -0.00332
 398  C 7   py       0.00000   0.09981   0.00000
 399  C 7   pz      -0.00025  -0.00000   0.00092
 400  C 7   px      -0.01975   0.00000   0.01425
 401  C 7   py       0.00000   0.14122   0.00000
 402  C 7   pz       0.01188   0.00000  -0.01625
 403  C 7   px       0.89198  -0.00000  -0.59842
 404  C 7   py      -0.00000   0.23187  -0.00000
 405  C 7   pz       0.84247  -0.00000   0.00358
 406  C 7   px       2.89126  -0.00000   1.53396
 407  C 7   py      -0.00000   0.45448  -0.00000
 408  C 7   pz      -5.36087   0.00000  -5.81975
 409  C 7   d 1     -0.00000  -0.00730  -0.00000
 410  C 7   d 2      0.00000   0.00601   0.00000
 411  C 7   d 3      0.00017  -0.00000  -0.00023
 412  C 7   d 4     -0.00149  -0.00000  -0.00086
 413  C 7   d 5     -0.00097   0.00000   0.00085
 414  C 7   d 1     -0.00000  -0.01758   0.00000
 415  C 7   d 2      0.00000   0.01693   0.00000
 416  C 7   d 3     -0.00681   0.00000   0.02324
 417  C 7   d 4      0.00512   0.00000   0.00954
 418  C 7   d 5     -0.00497  -0.00000  -0.01291
 419  C 7   d 1      0.00000   0.05719  -0.00000
 420  C 7   d 2      0.00000   0.00758  -0.00000
 421  C 7   d 3     -0.81719  -0.00000   0.33658
 422  C 7   d 4      0.48517   0.00000   0.41909
 423  C 7   d 5      0.47009   0.00000  -0.17764
 424  C 7   f 1      0.00000   0.00270   0.00000
 425  C 7   f 2      0.00000   0.00097   0.00000
 426  C 7   f 3      0.00000  -0.00029   0.00000
 427  C 7   f 4     -0.00015   0.00000   0.00096
 428  C 7   f 5     -0.00247   0.00000  -0.00058
 429  C 7   f 6      0.00086  -0.00000   0.00010
 430  C 7   f 7     -0.00077   0.00000   0.00045
 431  C 7   f 1     -0.00000   0.00158  -0.00000
 432  C 7   f 2      0.00000   0.00323   0.00000
 433  C 7   f 3      0.00000  -0.00245  -0.00000
 434  C 7   f 4      0.01686   0.00000  -0.02901
 435  C 7   f 5      0.00782  -0.00000   0.03121
 436  C 7   f 6     -0.01522  -0.00000   0.01253
 437  C 7   f 7      0.01280   0.00000  -0.02341
 438  C 8   s        0.00044   0.00000  -0.00165
 439  C 8   s       -0.01588   0.00000   0.00003
 440  C 8   s        0.00100   0.00000  -0.00052
 441  C 8   s       -0.97538  -0.00000  -0.58772
 442  C 8   s        2.57318   0.00000  -5.19053
 443  C 8   px      -0.01304  -0.00000   0.00037
 444  C 8   py       0.00000   0.01683  -0.00000
 445  C 8   pz      -0.00381  -0.00000   0.00411
 446  C 8   px      -0.02208   0.00000   0.00123
 447  C 8   py       0.00000   0.02199   0.00000
 448  C 8   pz       0.00590   0.00000  -0.00035
 449  C 8   px      -0.50745  -0.00000   0.10454
 450  C 8   py      -0.00000  -0.04009   0.00000
 451  C 8   pz       0.26776  -0.00000  -0.10426
 452  C 8   px      -1.18281   0.00000   1.52221
 453  C 8   py       0.00000  -0.08034   0.00000
 454  C 8   pz      -1.12052  -0.00000   0.20346
 455  C 8   d 1     -0.00000   0.00131   0.00000
 456  C 8   d 2     -0.00000  -0.00921  -0.00000
 457  C 8   d 3     -0.00096   0.00000  -0.00010
 458  C 8   d 4      0.00025  -0.00000   0.00097
 459  C 8   d 5      0.00003  -0.00000   0.00025
 460  C 8   d 1     -0.00000   0.00338  -0.00000
 461  C 8   d 2      0.00000  -0.02204  -0.00000
 462  C 8   d 3      0.01747  -0.00000  -0.00511
 463  C 8   d 4     -0.02459  -0.00000   0.00296
 464  C 8   d 5     -0.03521  -0.00000  -0.00105
 465  C 8   d 1      0.00000  -0.02171  -0.00000
 466  C 8   d 2      0.00000   0.02819  -0.00000
 467  C 8   d 3     -0.14991   0.00000  -0.32033
 468  C 8   d 4     -0.12606  -0.00000  -0.04310
 469  C 8   d 5      0.06686  -0.00000   0.23941
 470  C 8   f 1      0.00000  -0.00034  -0.00000
 471  C 8   f 2     -0.00000   0.00304  -0.00000
 472  C 8   f 3     -0.00000   0.00200  -0.00000
 473  C 8   f 4     -0.00045   0.00000   0.00081
 474  C 8   f 5      0.00007   0.00000  -0.00023
 475  C 8   f 6     -0.00011   0.00000  -0.00044
 476  C 8   f 7     -0.00027  -0.00000  -0.00012
 477  C 8   f 1     -0.00000   0.00097   0.00000
 478  C 8   f 2     -0.00000   0.00435  -0.00000
 479  C 8   f 3      0.00000  -0.00532   0.00000
 480  C 8   f 4     -0.00250  -0.00000   0.00031
 481  C 8   f 5      0.00995   0.00000  -0.00323
 482  C 8   f 6     -0.01138   0.00000  -0.00547
 483  C 8   f 7     -0.01719  -0.00000   0.00127
 484  H 6   s       -0.00667  -0.00000   0.00160
 485  H 6   s        0.13813   0.00000   0.00850
 486  H 6   s        0.16294   0.00000  -0.60202
 487  H 6   s        2.05642   0.00000  -0.84796
 488  H 6   px       0.00088  -0.00000  -0.00008
 489  H 6   py      -0.00000   0.00006   0.00000
 490  H 6   pz       0.00029   0.00000  -0.00027
 491  H 6   px      -0.02284  -0.00000  -0.00828
 492  H 6   py       0.00000  -0.00124  -0.00000
 493  H 6   pz      -0.00974  -0.00000   0.00824
 494  H 6   px       0.00897  -0.00000   0.01297
 495  H 6   py      -0.00000   0.03081   0.00000
 496  H 6   pz       0.08604  -0.00000   0.21452
 497  H 6   d 1      0.00000   0.00031   0.00000
 498  H 6   d 2     -0.00000  -0.00014  -0.00000
 499  H 6   d 3      0.00010  -0.00000   0.00004
 500  H 6   d 4      0.00036   0.00000  -0.00009
 501  H 6   d 5      0.00060   0.00000   0.00011
 502  H 6   d 1      0.00000  -0.00243  -0.00000
 503  H 6   d 2      0.00000  -0.00225   0.00000
 504  H 6   d 3      0.00255   0.00000  -0.00451
 505  H 6   d 4     -0.00278   0.00000  -0.00502
 506  H 6   d 5     -0.01112  -0.00000   0.00446
 507  C 9   s        0.00044  -0.00000  -0.00165
 508  C 9   s       -0.01588   0.00000   0.00003
 509  C 9   s        0.00100  -0.00000  -0.00052
 510  C 9   s       -0.97538   0.00000  -0.58772
 511  C 9   s        2.57318   0.00000  -5.19053
 512  C 9   px       0.01304  -0.00000  -0.00037
 513  C 9   py       0.00000   0.01683   0.00000
 514  C 9   pz      -0.00381   0.00000   0.00411
 515  C 9   px       0.02208   0.00000  -0.00123
 516  C 9   py       0.00000   0.02199  -0.00000
 517  C 9   pz       0.00590  -0.00000  -0.00035
 518  C 9   px       0.50745   0.00000  -0.10454
 519  C 9   py       0.00000  -0.04009  -0.00000
 520  C 9   pz       0.26776   0.00000  -0.10426
 521  C 9   px       1.18281   0.00000  -1.52221
 522  C 9   py      -0.00000  -0.08034  -0.00000
 523  C 9   pz      -1.12052   0.00000   0.20346
 524  C 9   d 1     -0.00000  -0.00131   0.00000
 525  C 9   d 2     -0.00000  -0.00921  -0.00000
 526  C 9   d 3     -0.00096   0.00000  -0.00010
 527  C 9   d 4     -0.00025   0.00000  -0.00097
 528  C 9   d 5      0.00003  -0.00000   0.00025
 529  C 9   d 1      0.00000  -0.00338  -0.00000
 530  C 9   d 2     -0.00000  -0.02204  -0.00000
 531  C 9   d 3      0.01747   0.00000  -0.00511
 532  C 9   d 4      0.02459  -0.00000  -0.00296
 533  C 9   d 5     -0.03521   0.00000  -0.00105
 534  C 9   d 1     -0.00000   0.02171  -0.00000
 535  C 9   d 2     -0.00000   0.02819   0.00000
 536  C 9   d 3     -0.14991  -0.00000  -0.32033
 537  C 9   d 4      0.12606   0.00000   0.04310
 538  C 9   d 5      0.06686   0.00000   0.23941
 539  C 9   f 1     -0.00000  -0.00034   0.00000
 540  C 9   f 2     -0.00000  -0.00304  -0.00000
 541  C 9   f 3      0.00000   0.00200  -0.00000
 542  C 9   f 4     -0.00045  -0.00000   0.00081
 543  C 9   f 5     -0.00007   0.00000   0.00023
 544  C 9   f 6     -0.00011  -0.00000  -0.00044
 545  C 9   f 7      0.00027  -0.00000   0.00012
 546  C 9   f 1     -0.00000   0.00097  -0.00000
 547  C 9   f 2     -0.00000  -0.00435  -0.00000
 548  C 9   f 3      0.00000  -0.00532   0.00000
 549  C 9   f 4     -0.00250   0.00000   0.00031
 550  C 9   f 5     -0.00995   0.00000   0.00323
 551  C 9   f 6     -0.01138   0.00000  -0.00547
 552  C 9   f 7      0.01719  -0.00000  -0.00127
 553  H 7   s       -0.00667   0.00000   0.00160
 554  H 7   s        0.13813  -0.00000   0.00850
 555  H 7   s        0.16294  -0.00000  -0.60202
 556  H 7   s        2.05642   0.00000  -0.84796
 557  H 7   px      -0.00088  -0.00000   0.00008
 558  H 7   py       0.00000   0.00006  -0.00000
 559  H 7   pz       0.00029  -0.00000  -0.00027
 560  H 7   px       0.02284  -0.00000   0.00828
 561  H 7   py      -0.00000  -0.00124   0.00000
 562  H 7   pz      -0.00974   0.00000   0.00824
 563  H 7   px      -0.00897  -0.00000  -0.01297
 564  H 7   py       0.00000   0.03081  -0.00000
 565  H 7   pz       0.08604   0.00000   0.21452
 566  H 7   d 1     -0.00000  -0.00031   0.00000
 567  H 7   d 2     -0.00000  -0.00014   0.00000
 568  H 7   d 3      0.00010  -0.00000   0.00004
 569  H 7   d 4     -0.00036  -0.00000   0.00009
 570  H 7   d 5      0.00060  -0.00000   0.00011
 571  H 7   d 1      0.00000   0.00243  -0.00000
 572  H 7   d 2     -0.00000  -0.00225  -0.00000
 573  H 7   d 3      0.00255   0.00000  -0.00451
 574  H 7   d 4      0.00278   0.00000   0.00502
 575  H 7   d 5     -0.01112   0.00000   0.00446
 576  C 10  s        0.00199   0.00000  -0.00131
 577  C 10  s       -0.01639   0.00000  -0.02016
 578  C 10  s       -0.00005   0.00000  -0.01354
 579  C 10  s       -0.41110  -0.00000   1.07392
 580  C 10  s        4.80612  -0.00000  16.55618
 581  C 10  px       0.00000  -0.00000   0.00000
 582  C 10  py      -0.00000  -0.09681  -0.00000
 583  C 10  pz      -0.02019   0.00000  -0.01222
 584  C 10  px      -0.00000  -0.00000  -0.00000
 585  C 10  py      -0.00000  -0.13572  -0.00000
 586  C 10  pz       0.01807  -0.00000   0.05599
 587  C 10  px       0.00000   0.00000   0.00000
 588  C 10  py      -0.00000  -0.19017  -0.00000
 589  C 10  pz      -0.76314  -0.00000   0.77400
 590  C 10  px      -0.00000   0.00000   0.00000
 591  C 10  py       0.00000  -0.31185  -0.00000
 592  C 10  pz      -3.55282   0.00000  -6.93527
 593  C 10  d 1     -0.00000  -0.00000   0.00000
 594  C 10  d 2     -0.00000  -0.00269  -0.00000
 595  C 10  d 3      0.00040   0.00000   0.00057
 596  C 10  d 4     -0.00000  -0.00000   0.00000
 597  C 10  d 5     -0.00113   0.00000  -0.00004
 598  C 10  d 1     -0.00000   0.00000  -0.00000
 599  C 10  d 2     -0.00000  -0.00963   0.00000
 600  C 10  d 3      0.00160  -0.00000   0.08023
 601  C 10  d 4      0.00000   0.00000   0.00000
 602  C 10  d 5     -0.00209  -0.00000   0.01086
 603  C 10  d 1     -0.00000   0.00000   0.00000
 604  C 10  d 2      0.00000  -0.04861  -0.00000
 605  C 10  d 3     -0.04803  -0.00000   0.01944
 606  C 10  d 4     -0.00000  -0.00000  -0.00000
 607  C 10  d 5      0.21364   0.00000   0.39771
 608  C 10  f 1      0.00000  -0.00104   0.00000
 609  C 10  f 2     -0.00000   0.00000   0.00000
 610  C 10  f 3     -0.00000   0.00023  -0.00000
 611  C 10  f 4      0.00215  -0.00000   0.00336
 612  C 10  f 5     -0.00000  -0.00000   0.00000
 613  C 10  f 6     -0.00063   0.00000  -0.00050
 614  C 10  f 7     -0.00000  -0.00000   0.00000
 615  C 10  f 1     -0.00000   0.00411  -0.00000
 616  C 10  f 2      0.00000  -0.00000   0.00000
 617  C 10  f 3      0.00000  -0.00388   0.00000
 618  C 10  f 4     -0.04013  -0.00000   0.02559
 619  C 10  f 5     -0.00000  -0.00000  -0.00000
 620  C 10  f 6      0.00783   0.00000  -0.00598
 621  C 10  f 7      0.00000   0.00000   0.00000
 622  H 8   s       -0.00662   0.00000  -0.00091
 623  H 8   s        0.07824   0.00000  -0.24942
 624  H 8   s        0.47685   0.00000  -2.05967
 625  H 8   s        3.72135  -0.00000   5.94246
 626  H 8   px      -0.00000  -0.00000   0.00000
 627  H 8   py      -0.00000  -0.00394   0.00000
 628  H 8   pz       0.00154  -0.00000   0.00187
 629  H 8   px       0.00000   0.00000   0.00000
 630  H 8   py      -0.00000  -0.00837  -0.00000
 631  H 8   pz       0.02194  -0.00000   0.09396
 632  H 8   px       0.00000   0.00000   0.00000
 633  H 8   py      -0.00000   0.03645   0.00000
 634  H 8   pz       0.07555  -0.00000   0.65046
 635  H 8   d 1      0.00000   0.00000   0.00000
 636  H 8   d 2      0.00000   0.00143   0.00000
 637  H 8   d 3     -0.00131   0.00000  -0.00414
 638  H 8   d 4     -0.00000  -0.00000   0.00000
 639  H 8   d 5      0.00067   0.00000   0.00127
 640  H 8   d 1     -0.00000  -0.00000  -0.00000
 641  H 8   d 2      0.00000  -0.00403   0.00000
 642  H 8   d 3     -0.03564   0.00000  -0.02085
 643  H 8   d 4     -0.00000  -0.00000   0.00000
 644  H 8   d 5     -0.01442  -0.00000  -0.01305

          Ground-State Mulliken Net Atomic Charges

     Atom                 Charge (a.u.)
  ----------------------------------------
      1 C                     1.448384
      2 C                    -0.756949
      3 H                     0.148604
      4 C                    -0.227344
      5 H                     0.196587
      6 C                    -0.178753
      7 H                     0.284699
      8 C                    -0.227344
      9 H                     0.196587
     10 C                    -0.756949
     11 H                     0.148604
     12 C                     1.448384
     13 C                    -1.370773
     14 H                     0.520505
     15 C                    -1.370773
     16 H                     0.520505
     17 C                    -0.529496
     18 H                     0.505522
  ----------------------------------------
  Sum of atomic charges =     0.000000

 -----------------------------------------------------------------
                    Cartesian Multipole Moments
 -----------------------------------------------------------------
    Charge (ESU x 10^10)
                 0.0000
    Dipole Moment (Debye)
         X      -0.0000      Y       0.0000      Z      -1.4154
       Tot       1.4154
    Quadrupole Moments (Debye-Ang)
        XX     -51.3266     XY       0.0000     YY     -66.1440
        XZ      -0.0000     YZ      -0.0000     ZZ     -52.7913
    Octopole Moments (Debye-Ang^2)
       XXX      -0.0000    XXY       0.0000    XYY       0.0000
       YYY       0.0000    XXZ      -2.7648    XYZ      -0.0000
       YYZ      -1.6271    XZZ       0.0000    YZZ       0.0000
       ZZZ      -8.7123
    Hexadecapole Moments (Debye-Ang^3)
      XXXX    -512.7680   XXXY      -0.0000   XXYY    -124.7287
      XYYY       0.0000   YYYY     -83.2116   XXXZ       0.0000
      XXYZ       0.0000   XYYZ      -0.0000   YYYZ       0.0000
      XXZZ    -276.6705   XYZZ       0.0000   YYZZ    -245.3330
      XZZZ      -0.0000   YZZZ      -0.0000   ZZZZ   -1075.7355
 -----------------------------------------------------------------
 Total job time:  5451.53s(wall), 77206.43s(cpu) 
 Fri Mar 21 18:55:05 2025

        *************************************************************
        *                                                           *
        *  Thank you very much for using Q-Chem.  Have a nice day.  *
        *                                                           *
        *************************************************************


