                  Welcome to Q-Chem
     A Quantum Leap Into The Future Of Chemistry


 Q-Chem 6.2 (devel), Q-Chem, Inc., Pleasanton, CA (2024)

 E. Epifanovsky,  A. T. B. Gilbert,  Xintian Feng,  Joonho Lee,  Yuezhi Mao,  
 N. Mardirossian,  P. Pokhilko,  A. White,  M. Wormit,  M. P. Coons,  
 A. L. Dempwolff,  Zhengting Gan,  D. Hait,  P. R. Horn,  L. D. Jacobson,  
 I. Kaliman,  J. Kussmann,  A. W. Lange,  Ka Un Lao,  D. S. Levine,  Jie Liu,  
 S. C. McKenzie,  A. F. Morrison,  K. D. Nanda,  F. Plasser,  D. R. Rehn,  
 M. L. Vidal,  Zhi-Qiang You,  Ying Zhu,  Huseyin Aksu,  B. Alam,  
 B. Albrecht,  A. Aldossary,  E. Alguire,  J. H. Andersen,  
 J. E. Arias-Martinez,  V. Athavale,  D. Barton,  K. Begam,  A. Behn,  
 N. Bellonzi,  Y. A. Bernard,  E. J. Berquist,  H. Burton,  A. Carreras,  
 K. Carter-Fenk,  Mathew Chow,  Romit Chakraborty,  Chandrima Chakravarty,  
 Junhan Chen,  A. D. Chien,  K. D. Closser,  V. Cofer-Shabica,  L. Cunha,  
 S. Dasgupta,  Jia Deng,  Joseph Dickinson,  M. de Wergifosse,  
 M. Diedenhofen,  Hainam Do,  Wenjie Dou,  S. Ehlert,  Po-Tung Fang,  
 S. Fatehi,  Qingguo Feng,  Jonathan Fetherolf,  T. Friedhoff,  
 Thomas Froitzheim,  Sarai Folkestad,  B. Ganoe,  J. Gayvert,  Qinghui Ge,  
 G. Gidofalvi,  M. Gimferrer,  M. Goldey,  Montgomery Gray,  J. Gomes,  
 C. Gonzalez-Espinoza,  S. Gulania,  A. Gunina,  J. A. Gyamfi,  
 M. W. D. Hanson-Heine,  P. H. P. Harbach,  A. W. Hauser,  M. F. Herbst,  
 M. Hernandez Vera,  M. Hodecker,  Z. C. Holden,  S. Houck,  Xunkun Huang,  
 Kerwin Hui,  B. C. Huynh,  K. Ikeda,  M. Ivanov,  Nayanthara K. Jayadev,  
 Hyunjun Ji,  Zuxin Jin,  Hanjie Jiang,  Subrata Jana,  B. Kaduk,  
 S. Kaehler,  R. Kang,  K. Khistyaev,  Jaehoon Kim,  Yongbin Kim,  
 P. Klunzinger,  Z. Koczor-Benda,  Joong Hoon Koh,  D. Kosenkov,  
 Saikiran Kotaru,  L. Koulias,  T. Kowalczyk,  C. M. Krauter,  K. Kue,  
 A. Kunitsa,  T. Kus,  A. Landau,  K. V. Lawler,  D. Lefrancois,  S. Lehtola,  
 Rain Li,  Shaozhi Li,  Tao E. Li,  Yi-Pei Li,  Jiashu Liang,  M. Liebenthal,  
 Hung-Hsuan Lin,  You-Sheng Lin,  Fenglai Liu,  Kuan-Yu Liu,  Xiao Liu,  
 M. Loipersberger,  A. Luenser,  C. Malbon,  Aniket Mandal,  Manisha,  
 A. Manjanath,  P. Manohar,  E. Mansoor,  S. F. Manzer,  Shan-Ping Mao,  
 A. V. Marenich,  T. Markovich,  S. Mason,  F. Matz,  S. A. Maurer,  
 Samuel May,  Alexandra McIsaac,  P. F. McLaughlin,  M. F. S. J. Menger,  
 J.-M. Mewes,  S. A. Mewes,  P. Morgante,  Mohammad Mostafanejad,  
 Madhubani Mukherjee,  J. W. Mullinax,  Quyen Nguyen,  Avik Kumar Ojha,  
 K. J. Oosterbaan,  Eno Paenurk,  Xiaoliang Pan,  G. Paran,  V. Parravicini,  
 Alexander C. Paul,  Suranjan K. Paul,  F. Pavosevic,  Zheng Pei,  S. Prager,  
 E. I. Proynov,  E. Ramos,  B. Rana,  A. E. Rask,  A. Rettig,  R. M. Richard,  
 F. Rob,  E. Rossomme,  T. Scheele,  M. Scheurer,  M. Schneider,  
 P. E. Schneider,  Tim K. Schramm,  N. Sergueev,  S. M. Sharada,  
 Hengyuan Shen,  W. Skomorowski,  D. W. Small,  C. J. Stein,  
 Alistair J. Sterling,  Yingli Su,  Yu-Chuan Su,  E. J. Sundstrom,  
 J. Talbot,  Zhen Tao,  J. Thirman,  Hung-Yi Tsai,  T. Tsuchimochi,  
 N. M. Tubman,  C. Utku,  S. P. Veccham,  O. Vydrov,  Rahel Weiss,  
 J. Wenzel,  Jonathan Wong,  J. Witte,  H. Wu,  Yanze Wu,  A. Yamada,  
 Chou-Hsun Yang,  Kun Yao,  S. Yeganeh,  S. R. Yost,  Qi Yu,  A. Zech,  
 F. Zeller,  Chongxiao Zhao,  Igor Ying Zhang,  Xing Zhang,  Yu Zhang,  
 D. Zuev,  A. Aspuru-Guzik,  A. T. Bell,  N. A. Besley,  K. B. Bravaya,  
 B. R. Brooks,  D. Casanova,  Jeng-Da Chai,  Hsing-Ta Chen,  S. Coriani,  
 C. J. Cramer,  A. E. DePrince, III,  R. A. DiStasio Jr.,  A. Dreuw,  
 B. D. Dunietz,  T. R. Furlani,  W. A. Goddard III,  S. Grimme,  
 S. Hammes-Schiffer,  T. Head-Gordon,  W. J. Hehre,  Chao-Ping Hsu,  
 T.-C. Jagau,  Yousung Jung,  A. Klamt,  Jing Kong,  D. S. Lambrecht,  
 Xiangyuan Li,  WanZhen Liang,  N. J. Mayhall,  C. W. McCurdy,  J. B. Neaton,  
 T. Neudecker,  C. Ochsenfeld,  J. A. Parkhill,  R. Peverati,  
 V. A. Rassolov,  Haisheng Ren,  Yihan Shao,  L. V. Slipchenko,  
 R. P. Steele,  J. E. Subotnik,  A. J. W. Thom,  A. Tkatchenko,  
 D. G. Truhlar,  T. Van Voorhis,  Fan Wang,  T. A. Wesolowski,  K. B. Whaley,  
 H. L. Woodcock III,  P. M. Zimmerman,  S. Faraji,  P. M. W. Gill,  
 M. Head-Gordon,  J. M. Herbert,  A. I. Krylov

 Contributors to earlier versions of Q-Chem not listed above: 
 R. D. Adamson,  B. Austin,  R. Baer,  J. Baker,  G. J. O. Beran,  
 K. Brandhorst,  S. T. Brown,  E. F. C. Byrd,  Arup K. Chakraborty,  
 G. K. L. Chan,  Chun-Min Chang,  Yunqing Chen,  C.-L. Cheng,  
 Siu Hung Chien,  D. M. Chipman,  D. L. Crittenden,  H. Dachsel,  
 R. J. Doerksen,  A. D. Dutoi,  R. G. Edgar,  J. Fosso-Tande,  
 L. Fusti-Molnar,  D. Ghosh,  A. Ghysels,  A. Golubeva-Zadorozhnaya,  
 J. Gonthier,  M. S. Gordon,  S. R. Gwaltney,  G. Hawkins,  J. E. Herr,  
 A. Heyden,  S. Hirata,  E. G. Hohenstein,  G. Kedziora,  F. J. Keil,  
 C. Kelley,  Jihan Kim,  R. A. King,  R. Z. Khaliullin,  P. P. Korambath,  
 W. Kurlancheek,  A. Laurent,  A. M. Lee,  M. S. Lee,  S. V. Levchenko,  
 Ching Yeh Lin,  D. Liotard,  E. Livshits,  R. C. Lochan,  I. Lotan,  
 L. A. Martinez-Martinez,  P. E. Maslen,  N. Nair,  D. P. O'Neill,  
 D. Neuhauser,  E. Neuscamman,  C. M. Oana,  R. Olivares-Amaya,  R. Olson,  
 T. M. Perrine,  B. Peters,  P. A. Pieniazek,  A. Prociuk,  Y. M. Rhee,  
 J. Ritchie,  M. A. Rohrdanz,  E. Rosta,  N. J. Russ,  H. F. Schaefer III,  
 M. W. Schmidt,  N. E. Schultz,  S. Sharma,  N. Shenvi,  C. D. Sherrill,  
 A. C. Simmonett,  A. Sodt,  T. Stein,  D. Stuck,  K. S. Thanthiriwatte,  
 V. Vanovschi,  L. Vogt,  Tao Wang,  A. Warshel,  M. A. Watson,  
 C. F. Williams,  Q. Wu,  X. Xu,  Jun Yang,  W. Zhang,  Yan Zhao

   Please cite Q-Chem as follows:
  "Software for the frontiers of quantum chemistry:
   An overview of developments in the Q-Chem 5 package"
   J. Chem. Phys. 155, 084801 (2021)
   https://doi.org/10.1063/5.0055522 (open access)

 Q-Chem 6.2.1 for Intel X86 EM64T Linux

 Parts of Q-Chem use Armadillo 9.900.5 (Nocturnal Misbehaviour).
 http://arma.sourceforge.net/

 Q-Chem begins on Wed May  7 17:57:42 2025  

 Host: l33c32n3
0

     Scratch files written to /scratch/leuven/372/vsc37243/qchem21898//
 Processing $rem in /data/leuven/372/vsc37243/qchem-dyson-EA-NoL/config/preferences:
 Processing $rem in /user/leuven/372/vsc37243/.qchemrc:

 Checking the input file for inconsistencies... 	...done.

--------------------------------------------------------------
User input:
--------------------------------------------------------------
$molecule
0 1
C 0.000000 0.000000 0.000000
C -0.734909 -1.314803 0.049297
C 0.003494 -2.606898 -0.000000
C 1.344387 -2.581111 -0.018328
C 2.100993 -1.322853 0.000000
C 1.376224 0.000000 -0.035134
O -1.960141 -1.326610 0.121835
C -0.822360 -3.854829 -0.006046
O 3.328799 -1.350870 0.036502
O 2.324783 0.959788 -0.150255
C 2.209206 2.354231 0.102901
O -0.948339 0.970080 -0.021446
C -0.796245 2.347933 0.293900
H -1.492121 -3.865728 -0.872841
H -0.184227 -4.741451 -0.029278
H -1.466460 -3.890694 0.879043
H -0.303941 2.897410 -0.514293
H -1.817711 2.715193 0.406865
H -0.253042 2.485795 1.234659
H 1.772411 2.547097 1.087929
H 3.237566 2.718276 0.082921
H 1.631616 2.861032 -0.676803
H 1.951174 -3.482619 -0.034620
$end
!dih1 -020 dih2 0020
$end

$rem
   CCMAN2                       1
   MEM_TOTAL                    120000
   CC_MEMORY			115000
   MEM_STATIC                   2000
   METHOD                       cc2
   BASIS                        gen
   PURECART                     11
   AUX_BASIS                    rimp2-aug-cc-pVDZ
   N_FROZEN_CORE                fc
   EA_STATES                    [2]
   SCF_CONVERGENCE              10
   MAX_SCF_CYCLES               200
   CC_CONVERGENCE               8
   EOM_DAVIDSON_CONVERGENCE     8
   CC_TRANS_PROP		TRUE
   CC_DO_DYSON			TRUE
   CC_EOM_PROP			TRUE
   !PRINT_ORBITALS               TRUE
$end

$basis
H     0
S   4   1.00
      1.301000D+01           1.968500D-02
      1.962000D+00           1.379770D-01
      4.446000D-01           4.781480D-01
      1.220000D-01           5.012400D-01
S   1   1.00
      1.220000D-01           1.000000D+00
S   1   1.00
      0.0297400              1.0000000
S   1   1.00
      0.01487              1.0000000
S   1   1.00
      0.007435              1.0000000
S   1   1.00
      0.0037175              1.0000000
P   1   1.00
      7.270000D-01           1.0000000
P   1   1.00
      0.1410000              1.0000000
****
C     0
S   9   1.00
      6.665000D+03           6.920000D-04
      1.000000D+03           5.329000D-03
      2.280000D+02           2.707700D-02
      6.471000D+01           1.017180D-01
      2.106000D+01           2.747400D-01
      7.495000D+00           4.485640D-01
      2.797000D+00           2.850740D-01
      5.215000D-01           1.520400D-02
      1.596000D-01          -3.191000D-03
S   9   1.00
      6.665000D+03          -1.460000D-04
      1.000000D+03          -1.154000D-03
      2.280000D+02          -5.725000D-03
      6.471000D+01          -2.331200D-02
      2.106000D+01          -6.395500D-02
      7.495000D+00          -1.499810D-01
      2.797000D+00          -1.272620D-01
      5.215000D-01           5.445290D-01
      1.596000D-01           5.804960D-01
S   1   1.00
      1.596000D-01           1.000000D+00
S   1   1.00
      0.0469000              1.0000000
S   1   1.00
      0.02345              1.0000000
S   1   1.00
      0.011725              1.0000000
S   1   1.00
      0.0058625              1.0000000
S   1   1.00
      0.00293125              1.0000000
S   1   1.00
      0.00146562              1.0000000
S   1   1.00
      0.00073281              1.0000000
P   4   1.00
      9.439000D+00           3.810900D-02
      2.002000D+00           2.094800D-01
      5.456000D-01           5.085570D-01
      1.517000D-01           4.688420D-01
P   1   1.00
      1.517000D-01           1.000000D+00
P   1   1.00
      0.0404100              1.0000000
P   1   1.00
      0.020205              1.0000000
P   1   1.00
      0.0101025              1.0000000
P   1   1.00
      0.00505125              1.0000000
D   1   1.00
      5.500000D-01           1.0000000
D   1   1.00
      0.1510000              1.0000000
****
N     0
S   9   1.00
      9.046000D+03           7.000000D-04
      1.357000D+03           5.389000D-03
      3.093000D+02           2.740600D-02
      8.773000D+01           1.032070D-01
      2.856000D+01           2.787230D-01
      1.021000D+01           4.485400D-01
      3.838000D+00           2.782380D-01
      7.466000D-01           1.544000D-02
      2.248000D-01          -2.864000D-03
S   9   1.00
      9.046000D+03          -1.530000D-04
      1.357000D+03          -1.208000D-03
      3.093000D+02          -5.992000D-03
      8.773000D+01          -2.454400D-02
      2.856000D+01          -6.745900D-02
      1.021000D+01          -1.580780D-01
      3.838000D+00          -1.218310D-01
      7.466000D-01           5.490030D-01
      2.248000D-01           5.788150D-01
S   1   1.00
      2.248000D-01           1.000000D+00
S   1   1.00
      0.0612400              1.0000000
S   1   1.00
      0.03062              1.0000000
S   1   1.00
      0.01531              1.0000000
S   1   1.00
      0.007655              1.0000000
S   1   1.00
      0.0038275              1.0000000
S   1   1.00
      0.00191375              1.0000000
S   1   1.00
      0.000956875              1.0000000
P   4   1.00
      1.355000D+01           3.991900D-02
      2.917000D+00           2.171690D-01
      7.973000D-01           5.103190D-01
      2.185000D-01           4.622140D-01
P   1   1.00
      2.185000D-01           1.000000D+00
P   1   1.00
      0.0561100              1.0000000
P   1   1.00
      0.028055              1.0000000
P   1   1.00
      0.0140275              1.0000000
P   1   1.00
      0.00701375              1.0000000
D   1   1.00
      8.170000D-01           1.0000000
D   1   1.00
      0.2300000              1.0000000
****
O     0
S   9   1.00
      1.172000D+04           7.100000D-04
      1.759000D+03           5.470000D-03
      4.008000D+02           2.783700D-02
      1.137000D+02           1.048000D-01
      3.703000D+01           2.830620D-01
      1.327000D+01           4.487190D-01
      5.025000D+00           2.709520D-01
      1.013000D+00           1.545800D-02
      3.023000D-01          -2.585000D-03
S   9   1.00
      1.172000D+04          -1.600000D-04
      1.759000D+03          -1.263000D-03
      4.008000D+02          -6.267000D-03
      1.137000D+02          -2.571600D-02
      3.703000D+01          -7.092400D-02
      1.327000D+01          -1.654110D-01
      5.025000D+00          -1.169550D-01
      1.013000D+00           5.573680D-01
      3.023000D-01           5.727590D-01
S   1   1.00
      3.023000D-01           1.000000D+00
S   1   1.00
      0.0789600              1.0000000
S   1   1.00
      0.03948              1.0000000
S   1   1.00
      0.01974              1.0000000
S   1   1.00
      0.00987              1.0000000
S   1   1.00
      0.004935              1.0000000
S   1   1.00
      0.0024675              1.0000000
S   1   1.00
      0.00123375              1.0000000
P   4   1.00
      1.770000D+01           4.301800D-02
      3.854000D+00           2.289130D-01
      1.046000D+00           5.087280D-01
      2.753000D-01           4.605310D-01
P   1   1.00
      2.753000D-01           1.000000D+00
P   1   1.00
      0.0685600              1.0000000
P   1   1.00
      0.03428              1.0000000
P   1   1.00
      0.01714              1.0000000
P   1   1.00
      0.00857              1.0000000
D   1   1.00
      1.185000D+00           1.0000000
D   1   1.00
      0.3320000              1.0000000
****
S     0
S   12   1.00
      1.108000D+05           2.476350D-04
      1.661000D+04           1.920260D-03
      3.781000D+03           9.961920D-03
      1.071000D+03           4.029750D-02
      3.498000D+02           1.286040D-01
      1.263000D+02           3.034800D-01
      4.926000D+01           4.214320D-01
      2.016000D+01           2.307810D-01
      5.720000D+00           1.789710D-02
      2.182000D+00          -2.975160D-03
      4.327000D-01           8.495220D-04
      1.570000D-01          -3.679360D-04
S   12   1.00
      1.108000D+05          -6.870390D-05
      1.661000D+04          -5.276810D-04
      3.781000D+03          -2.796710D-03
      1.071000D+03          -1.126510D-02
      3.498000D+02          -3.888340D-02
      1.263000D+02          -9.950250D-02
      4.926000D+01          -1.997400D-01
      2.016000D+01          -1.233600D-01
      5.720000D+00           5.131940D-01
      2.182000D+00           6.071200D-01
      4.327000D-01           3.967530D-02
      1.570000D-01          -9.468640D-03
S   12   1.00
      1.108000D+05           1.990770D-05
      1.661000D+04           1.534830D-04
      3.781000D+03           8.095030D-04
      1.071000D+03           3.289740D-03
      3.498000D+02           1.129670D-02
      1.263000D+02           2.963850D-02
      4.926000D+01           5.998510D-02
      2.016000D+01           4.132480D-02
      5.720000D+00          -2.074740D-01
      2.182000D+00          -3.928890D-01
      4.327000D-01           6.328400D-01
      1.570000D-01           5.569240D-01
S   1   1.00
      1.570000D-01           1.000000D+00
S   1   1.00
      0.0507000              1.0000000
S   1   1.00
      0.02535              1.0000000
S   1   1.00
      0.012675              1.0000000
S   1   1.00
      0.0063375              1.0000000
S   1   1.00
      0.00316875              1.0000000
S   1   1.00
      0.00158438              1.0000000
S   1   1.00
      0.00079219              1.0000000
P   8   1.00
      3.997000D+02           4.475410D-03
      9.419000D+01           3.417080D-02
      2.975000D+01           1.442500D-01
      1.077000D+01           3.539280D-01
      4.119000D+00           4.590850D-01
      1.625000D+00           2.063830D-01
      4.726000D-01           1.021410D-02
      1.407000D-01          -6.031220D-05
P   8   1.00
      3.997000D+02          -1.162510D-03
      9.419000D+01          -8.656640D-03
      2.975000D+01          -3.908860D-02
      1.077000D+01          -9.346250D-02
      4.119000D+00          -1.479940D-01
      1.625000D+00           3.019040D-02
      4.726000D-01           5.615730D-01
      1.407000D-01           5.347760D-01
P   1   1.00
      1.407000D-01           1.000000D+00
P   1   1.00
      0.0399000              1.0000000
P   1   1.00
      0.01995              1.0000000
P   1   1.00
      0.009975              1.0000000
P   1   1.00
      0.0049875              1.0000000
D   1   1.00
      4.790000D-01           1.0000000
D   1   1.00
      0.1520000              1.0000000
****
$end

--------------------------------------------------------------
 ----------------------------------------------------------------
             Standard Nuclear Orientation (Angstroms)
    I     Atom           X                Y                Z
 ----------------------------------------------------------------
    1      C       0.3026568323    -0.6763112146     0.0682277284
    2      C      -1.1727833398    -0.9771513516     0.0065846279
    3      C      -2.1784296387     0.1209484986     0.0010245763
    4      C      -1.7448707404     1.3900483859    -0.0191516536
    5      C      -0.3155916036     1.7263497145    -0.0271713134
    6      C       0.7221847707     0.6348704719     0.0631493428
    7      O      -1.5568809850    -2.1423525653    -0.0304255174
    8      C      -3.6188213987    -0.2848481007    -0.0009405979
    9      O       0.0330751666     2.9022410686    -0.1002187532
   10      O       1.9237849332     1.2495362175     0.1751899462
   11      C       3.2201736632     0.7058199985    -0.0385066085
   12      O       0.9365125673    -1.8736413417     0.1423186861
   13      C       2.2997792009    -2.1597459126    -0.1417637567
   14      H      -3.8471636414    -0.8881167157     0.8844739692
   15      H      -4.2685967995     0.5933951636    -0.0191812016
   16      H      -3.8357605938    -0.9185597690    -0.8674742402
   17      H       2.9606192482    -1.8296812065     0.6655848971
   18      H       2.3394376107    -3.2478838330    -0.2153631107
   19      H       2.6115330301    -1.7182430323    -1.0941227662
   20      H       3.2858574288     0.1962029900    -1.0050693195
   21      H       3.8803814485     1.5744841755    -0.0391994173
   22      H       3.5142518399     0.0295105398     0.7705170817
   23      H      -2.4182795050     2.2427417158    -0.0437948572
 ----------------------------------------------------------------
 Molecular Point Group                 C1    NOp =  1
 Largest Abelian Subgroup              C1    NOp =  1
 Nuclear Repulsion Energy =         801.28298839 hartrees
 There are       48 alpha and       48 beta electrons
 Requested basis set is non-standard
 There are 314 shells and 614 basis functions
 Total memory of 120000 MB is distributed as follows: 
   MEM_STATIC is set to 2000 MB
   QALLOC/CCMAN JOB total memory use is  118000 MB
 Warning: actual memory use might exceed 120000 MB

 Total QAlloc Memory Limit 120000 MB
 Mega-Array Size      1956 MB
 MEM_STATIC part      2000 MB

 Requested basis set is rimp2-aug-cc-pVDZ
 There are 376 shells and 1166 basis functions
 A cutoff of  1.0D-14 yielded  49355 shell pairs
 There are    188109 function pairs (    204313 Cartesian)
 Smallest overlap matrix eigenvalue = 1.87E-11
 Linear dependence detected in AO basis
 Tighter screening thresholds may be required for diffuse basis sets
 Use S2THRESH > 14 and THRESH = 14 in case of SCF convergence issues
 Number of orthogonalized atomic orbitals = 539
 Maximum deviation from orthogonality = 3.200E-09

 Scale SEOQF with 1.000000e-02/1.000000e-02/1.000000e-02

 Standard Electronic Orientation quadrupole field applied
 Nucleus-field energy     =     0.0000000031 hartrees
 ================ Generating on-the-fly SAD Guess ================
 Attempting to make child job directory: /scratch/leuven/372/vsc37243/qchem21898//Frg1/
 Attempting to make child job directory: /scratch/leuven/372/vsc37243/qchem21898//Frg2/
 Attempting to make child job directory: /scratch/leuven/372/vsc37243/qchem21898//Frg3/
 Creating input file /scratch/leuven/372/vsc37243/qchem21898/Frg1.input
 using default PutDataFrgm: nothing
 calling putenv with: QCSCRATCH=/scratch/leuven/372/vsc37243/qchem21898/ 
 Spawning Job For Fragment 0
 Done Job For Fragment 0
 calling putenv with: QCSCRATCH=/scratch/leuven/372/vsc37243 
 calling putenv with: QCTHREADS=36 
 Creating input file /scratch/leuven/372/vsc37243/qchem21898/Frg2.input
 using default PutDataFrgm: nothing
 calling putenv with: QCSCRATCH=/scratch/leuven/372/vsc37243/qchem21898/ 
 Spawning Job For Fragment 1
 Done Job For Fragment 1
 calling putenv with: QCSCRATCH=/scratch/leuven/372/vsc37243 
 calling putenv with: QCTHREADS=36 
 Creating input file /scratch/leuven/372/vsc37243/qchem21898/Frg3.input
 using default PutDataFrgm: nothing
 calling putenv with: QCSCRATCH=/scratch/leuven/372/vsc37243/qchem21898/ 
 Spawning Job For Fragment 2
 Done Job For Fragment 2
 calling putenv with: QCSCRATCH=/scratch/leuven/372/vsc37243 
 calling putenv with: QCTHREADS=36 
 Time for running child jobs:  CPU 3.76 s  wall 41.53 s
 ============= Method Specific SAD Guess Constructed =============
 Guess from on-the-fly superposition of atomic densities
 Warning: Energy on first SCF cycle will be non-variational

 -----------------------------------------------------------------------
  General SCF calculation program by
  Eric Jon Sundstrom, Paul Horn, Yuezhi Mao, Dmitri Zuev, Alec White,
  David Stuck, Shaama M.S., Shane Yost, Joonho Lee, David Small,
  Daniel Levine, Susi Lehtola, Hugh Burton, Evgeny Epifanovsky,
  Bang C. Huynh
 -----------------------------------------------------------------------
 Hartree-Fock
 using 36 threads for integral computing
 -------------------------------------------------------
 OpenMP Integral computing Module                
 Release: version 1.0, May 2013, Q-Chem Inc. Pittsburgh 
 -------------------------------------------------------
 A restricted SCF calculation will be
 performed using DIIS
 SCF converges when DIIS error is below 1.0e-10
 ---------------------------------------
  Cycle       Energy         DIIS error
 ---------------------------------------
    1    -650.4674801497      2.37e-02  
    2    -645.7725629149      2.81e-03  
    3    -645.9165188237      2.37e-03  
    4    -646.0734704741      3.51e-04  
    5    -646.0803876780      9.46e-05  
    6    -646.0809807178      3.36e-05  
    7    -646.0811050271      1.77e-05  
    8    -646.0811311476      6.99e-06  
    9    -646.0811354390      2.43e-06  
   10    -646.0811359991      6.91e-07  
   11    -646.0811360534      2.92e-07  
   12    -646.0811360632      1.37e-07  
   13    -646.0811360657      6.05e-08  
   14    -646.0811360664      2.53e-08  
   15    -646.0811360665      7.65e-09  
   16    -646.0811360666      2.50e-09  
   17    -646.0811360666      1.04e-09  
   18    -646.0811360666      4.48e-10  
   19    -646.0811360666      1.79e-10  
   20    -646.0811360666      9.44e-11  Convergence criterion met
 ---------------------------------------
 SCF time:   CPU 9307.13s  wall 398.00s 
 SCF   energy =  -646.08113607
 Total energy =  -646.08113607


 ------------------------------------------------------------------------------

   CCMAN2: suite of methods based on coupled cluster
           and equation of motion theories.

   Components:
   * libvmm-1.3-trunk
     by Evgeny Epifanovsky, Ilya Kaliman.
   * libtensor-2.5-trunk
     by Evgeny Epifanovsky, Michael Wormit, Dmitry Zuev, Sam Manzer, 
        Ilya Kaliman.
   * libcc-2.5-trunk
     by Evgeny Epifanovsky, Arik Landau, Tomasz Kus, Kirill Khistyaev, 
        Dmitry Zuev, Prashant Manohar, Xintian Feng, Anna Krylov, 
        Matthew Goldey, Alec White, Thomas Jagau, Kaushik Nanda, 
        Anastasia Gunina, Alexander Kunitsa, Joonho Lee.

   CCMAN original authors:
   Anna I. Krylov, C. David Sherrill, Steven R. Gwaltney,
   Edward F. C. Byrd (2000)
   Sergey V. Levchenko, Lyudmila V. Slipchenko, Tao Wang,
   Ana-Maria C. Cristian (2003)
   Piotr A. Pieniazek, C. Melania Oana, Evgeny Epifanovsky (2007)
   Prashant Manohar (2009)

 ------------------------------------------------------------------------------


 Allocating and initializing 115000MB of RAM (this may take a while)...
 Calculation will run on 36 cores.


 Alpha MOs, Restricted
 -- Occupied --                  
-20.611 -20.610 -20.575 -20.570 -11.360 -11.356 -11.342 -11.340
  1 A     2 A     3 A     4 A     5 A     6 A     7 A     8 A                  
-11.310 -11.309 -11.284 -11.267 -11.245  -1.442  -1.428  -1.393
  9 A    10 A    11 A    12 A    13 A    14 A    15 A    16 A                  
 -1.386  -1.148  -1.080  -1.004  -0.988  -0.954  -0.904  -0.826
 17 A    18 A    19 A    20 A    21 A    22 A    23 A    24 A                  
 -0.804  -0.749  -0.728  -0.702  -0.687  -0.659  -0.653  -0.645
 25 A    26 A    27 A    28 A    29 A    30 A    31 A    32 A                  
 -0.634  -0.616  -0.605  -0.591  -0.572  -0.567  -0.551  -0.540
 33 A    34 A    35 A    36 A    37 A    38 A    39 A    40 A                  
 -0.520  -0.512  -0.502  -0.487  -0.450  -0.433  -0.390  -0.343
 41 A    42 A    43 A    44 A    45 A    46 A    47 A    48 A                  
 -- Virtual --                   
  0.000   0.001   0.001   0.002   0.002   0.002   0.003   0.004
 49 A    50 A    51 A    52 A    53 A    54 A    55 A    56 A                  
  0.004   0.004   0.005   0.006   0.006   0.006   0.007   0.007
 57 A    58 A    59 A    60 A    61 A    62 A    63 A    64 A                  
  0.008   0.009   0.009   0.010   0.011   0.012   0.012   0.013
 65 A    66 A    67 A    68 A    69 A    70 A    71 A    72 A                  
  0.013   0.014   0.015   0.016   0.017   0.017   0.017   0.019
 73 A    74 A    75 A    76 A    77 A    78 A    79 A    80 A                  
  0.019   0.019   0.020   0.021   0.021   0.022   0.023   0.023
 81 A    82 A    83 A    84 A    85 A    86 A    87 A    88 A                  
  0.023   0.024   0.024   0.025   0.025   0.025   0.027   0.027
 89 A    90 A    91 A    92 A    93 A    94 A    95 A    96 A                  
  0.029   0.030   0.030   0.032   0.033   0.036   0.037   0.038
 97 A    98 A    99 A   100 A   101 A   102 A   103 A   104 A                  
  0.039   0.040   0.040   0.041   0.043   0.044   0.044   0.045
105 A   106 A   107 A   108 A   109 A   110 A   111 A   112 A                  
  0.046   0.046   0.047   0.048   0.049   0.050   0.051   0.051
113 A   114 A   115 A   116 A   117 A   118 A   119 A   120 A                  
  0.052   0.053   0.054   0.055   0.058   0.059   0.060   0.061
121 A   122 A   123 A   124 A   125 A   126 A   127 A   128 A                  
  0.061   0.062   0.064   0.065   0.067   0.069   0.069   0.070
129 A   130 A   131 A   132 A   133 A   134 A   135 A   136 A                  
  0.071   0.071   0.075   0.077   0.080   0.082   0.082   0.084
137 A   138 A   139 A   140 A   141 A   142 A   143 A   144 A                  
  0.084   0.086   0.087   0.088   0.091   0.092   0.095   0.096
145 A   146 A   147 A   148 A   149 A   150 A   151 A   152 A                  
  0.097   0.100   0.102   0.103   0.105   0.106   0.111   0.112
153 A   154 A   155 A   156 A   157 A   158 A   159 A   160 A                  
  0.114   0.117   0.118   0.120   0.120   0.124   0.125   0.126
161 A   162 A   163 A   164 A   165 A   166 A   167 A   168 A                  
  0.126   0.127   0.128   0.131   0.132   0.134   0.139   0.139
169 A   170 A   171 A   172 A   173 A   174 A   175 A   176 A                  
  0.141   0.142   0.143   0.146   0.148   0.151   0.152   0.153
177 A   178 A   179 A   180 A   181 A   182 A   183 A   184 A                  
  0.155   0.158   0.161   0.162   0.165   0.169   0.172   0.177
185 A   186 A   187 A   188 A   189 A   190 A   191 A   192 A                  
  0.179   0.181   0.184   0.188   0.189   0.190   0.192   0.198
193 A   194 A   195 A   196 A   197 A   198 A   199 A   200 A                  
  0.202   0.204   0.207   0.208   0.210   0.215   0.217   0.218
201 A   202 A   203 A   204 A   205 A   206 A   207 A   208 A                  
  0.227   0.230   0.231   0.232   0.234   0.240   0.241   0.243
209 A   210 A   211 A   212 A   213 A   214 A   215 A   216 A                  
  0.249   0.252   0.257   0.263   0.268   0.272   0.273   0.276
217 A   218 A   219 A   220 A   221 A   222 A   223 A   224 A                  
  0.277   0.279   0.283   0.287   0.288   0.292   0.295   0.301
225 A   226 A   227 A   228 A   229 A   230 A   231 A   232 A                  
  0.304   0.306   0.308   0.315   0.324   0.326   0.328   0.333
233 A   234 A   235 A   236 A   237 A   238 A   239 A   240 A                  
  0.340   0.347   0.348   0.350   0.361   0.367   0.374   0.378
241 A   242 A   243 A   244 A   245 A   246 A   247 A   248 A                  
  0.383   0.384   0.389   0.393   0.394   0.402   0.411   0.416
249 A   250 A   251 A   252 A   253 A   254 A   255 A   256 A                  
  0.418   0.426   0.432   0.441   0.443   0.445   0.446   0.456
257 A   258 A   259 A   260 A   261 A   262 A   263 A   264 A                  
  0.460   0.464   0.469   0.474   0.482   0.483   0.486   0.490
265 A   266 A   267 A   268 A   269 A   270 A   271 A   272 A                  
  0.498   0.501   0.506   0.508   0.518   0.524   0.527   0.534
273 A   274 A   275 A   276 A   277 A   278 A   279 A   280 A                  
  0.542   0.547   0.551   0.556   0.559   0.567   0.570   0.575
281 A   282 A   283 A   284 A   285 A   286 A   287 A   288 A                  
  0.579   0.588   0.595   0.598   0.602   0.610   0.613   0.618
289 A   290 A   291 A   292 A   293 A   294 A   295 A   296 A                  
  0.622   0.638   0.646   0.656   0.660   0.671   0.678   0.678
297 A   298 A   299 A   300 A   301 A   302 A   303 A   304 A                  
  0.686   0.692   0.695   0.698   0.710   0.712   0.714   0.722
305 A   306 A   307 A   308 A   309 A   310 A   311 A   312 A                  
  0.725   0.728   0.737   0.742   0.750   0.760   0.764   0.767
313 A   314 A   315 A   316 A   317 A   318 A   319 A   320 A                  
  0.771   0.776   0.786   0.792   0.799   0.810   0.816   0.825
321 A   322 A   323 A   324 A   325 A   326 A   327 A   328 A                  
  0.826   0.832   0.844   0.846   0.852   0.857   0.863   0.870
329 A   330 A   331 A   332 A   333 A   334 A   335 A   336 A                  
  0.883   0.891   0.907   0.909   0.915   0.923   0.930   0.940
337 A   338 A   339 A   340 A   341 A   342 A   343 A   344 A                  
  0.943   0.950   0.958   0.965   0.973   0.977   0.998   1.008
345 A   346 A   347 A   348 A   349 A   350 A   351 A   352 A                  
  1.014   1.029   1.035   1.039   1.053   1.072   1.077   1.086
353 A   354 A   355 A   356 A   357 A   358 A   359 A   360 A                  
  1.096   1.101   1.106   1.123   1.131   1.145   1.157   1.169
361 A   362 A   363 A   364 A   365 A   366 A   367 A   368 A                  
  1.183   1.197   1.200   1.212   1.221   1.232   1.237   1.264
369 A   370 A   371 A   372 A   373 A   374 A   375 A   376 A                  
  1.283   1.297   1.320   1.343   1.345   1.357   1.363   1.380
377 A   378 A   379 A   380 A   381 A   382 A   383 A   384 A                  
  1.392   1.404   1.437   1.439   1.454   1.470   1.476   1.486
385 A   386 A   387 A   388 A   389 A   390 A   391 A   392 A                  
  1.498   1.510   1.518   1.534   1.553   1.559   1.577   1.588
393 A   394 A   395 A   396 A   397 A   398 A   399 A   400 A                  
  1.599   1.603   1.607   1.619   1.631   1.644   1.670   1.677
401 A   402 A   403 A   404 A   405 A   406 A   407 A   408 A                  
  1.685   1.706   1.708   1.717   1.727   1.737   1.742   1.748
409 A   410 A   411 A   412 A   413 A   414 A   415 A   416 A                  
  1.761   1.767   1.783   1.801   1.828   1.840   1.848   1.861
417 A   418 A   419 A   420 A   421 A   422 A   423 A   424 A                  
  1.874   1.885   1.893   1.908   1.914   1.921   1.922   1.938
425 A   426 A   427 A   428 A   429 A   430 A   431 A   432 A                  
  1.952   1.958   1.972   1.986   1.996   1.998   2.011   2.015
433 A   434 A   435 A   436 A   437 A   438 A   439 A   440 A                  
  2.027   2.044   2.053   2.075   2.084   2.115   2.143   2.148
441 A   442 A   443 A   444 A   445 A   446 A   447 A   448 A                  
  2.161   2.165   2.170   2.182   2.187   2.199   2.206   2.217
449 A   450 A   451 A   452 A   453 A   454 A   455 A   456 A                  
  2.225   2.236   2.238   2.246   2.275   2.290   2.303   2.312
457 A   458 A   459 A   460 A   461 A   462 A   463 A   464 A                  
  2.327   2.335   2.346   2.357   2.380   2.396   2.408   2.432
465 A   466 A   467 A   468 A   469 A   470 A   471 A   472 A                  
  2.447   2.454   2.466   2.475   2.487   2.507   2.524   2.530
473 A   474 A   475 A   476 A   477 A   478 A   479 A   480 A                  
  2.544   2.573   2.589   2.616   2.639   2.650   2.654   2.684
481 A   482 A   483 A   484 A   485 A   486 A   487 A   488 A                  
  2.698   2.739   2.756   2.780   2.782   2.811   2.826   2.837
489 A   490 A   491 A   492 A   493 A   494 A   495 A   496 A                  
  2.912   2.950   2.984   2.985   3.010   3.017   3.031   3.054
497 A   498 A   499 A   500 A   501 A   502 A   503 A   504 A                  
  3.085   3.145   3.159   3.205   3.289   3.349   3.396   3.425
505 A   506 A   507 A   508 A   509 A   510 A   511 A   512 A                  
  3.470   3.539   3.564   3.630   3.661   3.776   3.785   3.815
513 A   514 A   515 A   516 A   517 A   518 A   519 A   520 A                  
  3.817   3.835   3.856   3.861   3.883   3.926   3.937   3.998
521 A   522 A   523 A   524 A   525 A   526 A   527 A   528 A                  
  4.010   4.030   4.056   4.080   4.105   4.177   4.197   4.278
529 A   530 A   531 A   532 A   533 A   534 A   535 A   536 A                  
  4.313   4.385   4.853
537 A   538 A   539 A                                                          

 Beta MOs, Restricted
 -- Occupied --                  
-20.611 -20.610 -20.575 -20.570 -11.360 -11.356 -11.342 -11.340
  1 A     2 A     3 A     4 A     5 A     6 A     7 A     8 A                  
-11.310 -11.309 -11.284 -11.267 -11.245  -1.442  -1.428  -1.393
  9 A    10 A    11 A    12 A    13 A    14 A    15 A    16 A                  
 -1.386  -1.148  -1.080  -1.004  -0.988  -0.954  -0.904  -0.826
 17 A    18 A    19 A    20 A    21 A    22 A    23 A    24 A                  
 -0.804  -0.749  -0.728  -0.702  -0.687  -0.659  -0.653  -0.645
 25 A    26 A    27 A    28 A    29 A    30 A    31 A    32 A                  
 -0.634  -0.616  -0.605  -0.591  -0.572  -0.567  -0.551  -0.540
 33 A    34 A    35 A    36 A    37 A    38 A    39 A    40 A                  
 -0.520  -0.512  -0.502  -0.487  -0.450  -0.433  -0.390  -0.343
 41 A    42 A    43 A    44 A    45 A    46 A    47 A    48 A                  
 -- Virtual --                   
  0.000   0.001   0.001   0.002   0.002   0.002   0.003   0.004
 49 A    50 A    51 A    52 A    53 A    54 A    55 A    56 A                  
  0.004   0.004   0.005   0.006   0.006   0.006   0.007   0.007
 57 A    58 A    59 A    60 A    61 A    62 A    63 A    64 A                  
  0.008   0.009   0.009   0.010   0.011   0.012   0.012   0.013
 65 A    66 A    67 A    68 A    69 A    70 A    71 A    72 A                  
  0.013   0.014   0.015   0.016   0.017   0.017   0.017   0.019
 73 A    74 A    75 A    76 A    77 A    78 A    79 A    80 A                  
  0.019   0.019   0.020   0.021   0.021   0.022   0.023   0.023
 81 A    82 A    83 A    84 A    85 A    86 A    87 A    88 A                  
  0.023   0.024   0.024   0.025   0.025   0.025   0.027   0.027
 89 A    90 A    91 A    92 A    93 A    94 A    95 A    96 A                  
  0.029   0.030   0.030   0.032   0.033   0.036   0.037   0.038
 97 A    98 A    99 A   100 A   101 A   102 A   103 A   104 A                  
  0.039   0.040   0.040   0.041   0.043   0.044   0.044   0.045
105 A   106 A   107 A   108 A   109 A   110 A   111 A   112 A                  
  0.046   0.046   0.047   0.048   0.049   0.050   0.051   0.051
113 A   114 A   115 A   116 A   117 A   118 A   119 A   120 A                  
  0.052   0.053   0.054   0.055   0.058   0.059   0.060   0.061
121 A   122 A   123 A   124 A   125 A   126 A   127 A   128 A                  
  0.061   0.062   0.064   0.065   0.067   0.069   0.069   0.070
129 A   130 A   131 A   132 A   133 A   134 A   135 A   136 A                  
  0.071   0.071   0.075   0.077   0.080   0.082   0.082   0.084
137 A   138 A   139 A   140 A   141 A   142 A   143 A   144 A                  
  0.084   0.086   0.087   0.088   0.091   0.092   0.095   0.096
145 A   146 A   147 A   148 A   149 A   150 A   151 A   152 A                  
  0.097   0.100   0.102   0.103   0.105   0.106   0.111   0.112
153 A   154 A   155 A   156 A   157 A   158 A   159 A   160 A                  
  0.114   0.117   0.118   0.120   0.120   0.124   0.125   0.126
161 A   162 A   163 A   164 A   165 A   166 A   167 A   168 A                  
  0.126   0.127   0.128   0.131   0.132   0.134   0.139   0.139
169 A   170 A   171 A   172 A   173 A   174 A   175 A   176 A                  
  0.141   0.142   0.143   0.146   0.148   0.151   0.152   0.153
177 A   178 A   179 A   180 A   181 A   182 A   183 A   184 A                  
  0.155   0.158   0.161   0.162   0.165   0.169   0.172   0.177
185 A   186 A   187 A   188 A   189 A   190 A   191 A   192 A                  
  0.179   0.181   0.184   0.188   0.189   0.190   0.192   0.198
193 A   194 A   195 A   196 A   197 A   198 A   199 A   200 A                  
  0.202   0.204   0.207   0.208   0.210   0.215   0.217   0.218
201 A   202 A   203 A   204 A   205 A   206 A   207 A   208 A                  
  0.227   0.230   0.231   0.232   0.234   0.240   0.241   0.243
209 A   210 A   211 A   212 A   213 A   214 A   215 A   216 A                  
  0.249   0.252   0.257   0.263   0.268   0.272   0.273   0.276
217 A   218 A   219 A   220 A   221 A   222 A   223 A   224 A                  
  0.277   0.279   0.283   0.287   0.288   0.292   0.295   0.301
225 A   226 A   227 A   228 A   229 A   230 A   231 A   232 A                  
  0.304   0.306   0.308   0.315   0.324   0.326   0.328   0.333
233 A   234 A   235 A   236 A   237 A   238 A   239 A   240 A                  
  0.340   0.347   0.348   0.350   0.361   0.367   0.374   0.378
241 A   242 A   243 A   244 A   245 A   246 A   247 A   248 A                  
  0.383   0.384   0.389   0.393   0.394   0.402   0.411   0.416
249 A   250 A   251 A   252 A   253 A   254 A   255 A   256 A                  
  0.418   0.426   0.432   0.441   0.443   0.445   0.446   0.456
257 A   258 A   259 A   260 A   261 A   262 A   263 A   264 A                  
  0.460   0.464   0.469   0.474   0.482   0.483   0.486   0.490
265 A   266 A   267 A   268 A   269 A   270 A   271 A   272 A                  
  0.498   0.501   0.506   0.508   0.518   0.524   0.527   0.534
273 A   274 A   275 A   276 A   277 A   278 A   279 A   280 A                  
  0.542   0.547   0.551   0.556   0.559   0.567   0.570   0.575
281 A   282 A   283 A   284 A   285 A   286 A   287 A   288 A                  
  0.579   0.588   0.595   0.598   0.602   0.610   0.613   0.618
289 A   290 A   291 A   292 A   293 A   294 A   295 A   296 A                  
  0.622   0.638   0.646   0.656   0.660   0.671   0.678   0.678
297 A   298 A   299 A   300 A   301 A   302 A   303 A   304 A                  
  0.686   0.692   0.695   0.698   0.710   0.712   0.714   0.722
305 A   306 A   307 A   308 A   309 A   310 A   311 A   312 A                  
  0.725   0.728   0.737   0.742   0.750   0.760   0.764   0.767
313 A   314 A   315 A   316 A   317 A   318 A   319 A   320 A                  
  0.771   0.776   0.786   0.792   0.799   0.810   0.816   0.825
321 A   322 A   323 A   324 A   325 A   326 A   327 A   328 A                  
  0.826   0.832   0.844   0.846   0.852   0.857   0.863   0.870
329 A   330 A   331 A   332 A   333 A   334 A   335 A   336 A                  
  0.883   0.891   0.907   0.909   0.915   0.923   0.930   0.940
337 A   338 A   339 A   340 A   341 A   342 A   343 A   344 A                  
  0.943   0.950   0.958   0.965   0.973   0.977   0.998   1.008
345 A   346 A   347 A   348 A   349 A   350 A   351 A   352 A                  
  1.014   1.029   1.035   1.039   1.053   1.072   1.077   1.086
353 A   354 A   355 A   356 A   357 A   358 A   359 A   360 A                  
  1.096   1.101   1.106   1.123   1.131   1.145   1.157   1.169
361 A   362 A   363 A   364 A   365 A   366 A   367 A   368 A                  
  1.183   1.197   1.200   1.212   1.221   1.232   1.237   1.264
369 A   370 A   371 A   372 A   373 A   374 A   375 A   376 A                  
  1.283   1.297   1.320   1.343   1.345   1.357   1.363   1.380
377 A   378 A   379 A   380 A   381 A   382 A   383 A   384 A                  
  1.392   1.404   1.437   1.439   1.454   1.470   1.476   1.486
385 A   386 A   387 A   388 A   389 A   390 A   391 A   392 A                  
  1.498   1.510   1.518   1.534   1.553   1.559   1.577   1.588
393 A   394 A   395 A   396 A   397 A   398 A   399 A   400 A                  
  1.599   1.603   1.607   1.619   1.631   1.644   1.670   1.677
401 A   402 A   403 A   404 A   405 A   406 A   407 A   408 A                  
  1.685   1.706   1.708   1.717   1.727   1.737   1.742   1.748
409 A   410 A   411 A   412 A   413 A   414 A   415 A   416 A                  
  1.761   1.767   1.783   1.801   1.828   1.840   1.848   1.861
417 A   418 A   419 A   420 A   421 A   422 A   423 A   424 A                  
  1.874   1.885   1.893   1.908   1.914   1.921   1.922   1.938
425 A   426 A   427 A   428 A   429 A   430 A   431 A   432 A                  
  1.952   1.958   1.972   1.986   1.996   1.998   2.011   2.015
433 A   434 A   435 A   436 A   437 A   438 A   439 A   440 A                  
  2.027   2.044   2.053   2.075   2.084   2.115   2.143   2.148
441 A   442 A   443 A   444 A   445 A   446 A   447 A   448 A                  
  2.161   2.165   2.170   2.182   2.187   2.199   2.206   2.217
449 A   450 A   451 A   452 A   453 A   454 A   455 A   456 A                  
  2.225   2.236   2.238   2.246   2.275   2.290   2.303   2.312
457 A   458 A   459 A   460 A   461 A   462 A   463 A   464 A                  
  2.327   2.335   2.346   2.357   2.380   2.396   2.408   2.432
465 A   466 A   467 A   468 A   469 A   470 A   471 A   472 A                  
  2.447   2.454   2.466   2.475   2.487   2.507   2.524   2.530
473 A   474 A   475 A   476 A   477 A   478 A   479 A   480 A                  
  2.544   2.573   2.589   2.616   2.639   2.650   2.654   2.684
481 A   482 A   483 A   484 A   485 A   486 A   487 A   488 A                  
  2.698   2.739   2.756   2.780   2.782   2.811   2.826   2.837
489 A   490 A   491 A   492 A   493 A   494 A   495 A   496 A                  
  2.912   2.950   2.984   2.985   3.010   3.017   3.031   3.054
497 A   498 A   499 A   500 A   501 A   502 A   503 A   504 A                  
  3.085   3.145   3.159   3.205   3.289   3.349   3.396   3.425
505 A   506 A   507 A   508 A   509 A   510 A   511 A   512 A                  
  3.470   3.539   3.564   3.630   3.661   3.776   3.785   3.815
513 A   514 A   515 A   516 A   517 A   518 A   519 A   520 A                  
  3.817   3.835   3.856   3.861   3.883   3.926   3.937   3.998
521 A   522 A   523 A   524 A   525 A   526 A   527 A   528 A                  
  4.010   4.030   4.056   4.080   4.105   4.177   4.197   4.278
529 A   530 A   531 A   532 A   533 A   534 A   535 A   536 A                  
  4.313   4.385   4.853
537 A   538 A   539 A                                                          

 Occupation and symmetry of molecular orbitals

 Point group: C1 (1 irreducible representation).

                           A     All 
 -------------------------------------
 All molecular orbitals:
  - Alpha                  539   539 
  - Beta                   539   539 
 -------------------------------------
 Alpha orbitals:
  - Frozen occupied        13    13  
  - Active occupied        35    35  
  - Active virtual         491   491 
  - Frozen virtual         0     0   
 -------------------------------------
 Beta orbitals:
  - Frozen occupied        13    13  
  - Active occupied        35    35  
  - Active virtual         491   491 
  - Frozen virtual         0     0   
 -------------------------------------

 Import integrals:   CPU 0.00 s  wall 0.00 s

 Import integrals:   CPU 787.77 s  wall 23.32 s


 MP2  CPU 488.31 s  wall 21.06 s
Running a double precision version
           RI-CC2 T amplitudes will be solved using DIIS.

           Start     Size      MaxIter   EConv     TConv     
           3         7         100       1.00e-08  1.00e-07  
 ------------------------------------------------------------------------------
           Energy (a.u.)   Ediff      Tdiff       Comment
 ------------------------------------------------------------------------------
        -648.0979468716                           
     1  -648.0962442926   1.70e-03   1.47e+00     
     2  -648.1245814931   2.83e-02   6.87e-02     
     3  -648.1268794579   2.30e-03   4.92e-02     
     4  -648.1317115134   4.83e-03   1.62e-02     Switched to DIIS steps.
     5  -648.1349319110   3.22e-03   2.04e-02     
     6  -648.1352998555   3.68e-04   3.34e-03     
     7  -648.1353377726   3.79e-05   2.77e-03     
     8  -648.1353370645   7.08e-07   7.70e-04     
     9  -648.1353537856   1.67e-05   4.57e-04     
    10  -648.1353599938   6.21e-06   1.42e-04     
    11  -648.1353597292   2.65e-07   7.24e-05     
    12  -648.1353607912   1.06e-06   4.15e-05     
    13  -648.1353598814   9.10e-07   1.96e-05     
    14  -648.1353597322   1.49e-07   1.19e-05     
    15  -648.1353595771   1.55e-07   8.68e-06     
    16  -648.1353594496   1.27e-07   5.56e-06     
    17  -648.1353594455   4.14e-09   3.84e-06     
    18  -648.1353593974   4.81e-08   1.48e-06     
    19  -648.1353593615   3.59e-08   9.87e-07     
    20  -648.1353593463   1.52e-08   4.47e-07     
    21  -648.1353593337   1.27e-08   2.36e-07     
    22  -648.1353593280   5.69e-09   1.27e-07     
    23  -648.1353593263   1.65e-09   6.75e-08     
 ------------------------------------------------------------------------------
        -648.1353593263                           CC2 T converged.

End of double precision
 SCF energy                 = -646.08113607
 MP2 energy                 = -648.09794687
 CC2 correlation energy    =   -2.05422326
 CC2 total energy          = -648.13535933

 CC2  T1^2 = 0.0603  T2^2 = 0.7139  Leading amplitudes:

 Amplitude    Orbitals with energies
 -0.0488       40 (A) A                  ->    89 (A) A                   
              -0.5404                          0.0234                     
 -0.0488       40 (A) B                  ->    89 (A) B                   
              -0.5404                          0.0234                     
 -0.0429       40 (A) A                  ->    87 (A) A                   
              -0.5404                          0.0231                     
 -0.0429       40 (A) B                  ->    87 (A) B                   
              -0.5404                          0.0231                     

 Amplitude    Orbitals with energies
 -0.0342       47 (A) A      47 (A) B    ->    89 (A) A      89 (A) B     
              -0.3900       -0.3900            0.0234        0.0234       
  0.0342       47 (A) A      47 (A) B    ->    89 (A) B      89 (A) A     
              -0.3900       -0.3900            0.0234        0.0234       
  0.0342       47 (A) B      47 (A) A    ->    89 (A) A      89 (A) B     
              -0.3900       -0.3900            0.0234        0.0234       
 -0.0342       47 (A) B      47 (A) A    ->    89 (A) B      89 (A) A     
              -0.3900       -0.3900            0.0234        0.0234       

 Computing CC2 intermediates for later calculations in double precision
 Finished.


 CC2  CPU 23921.97 s  wall 788.46 s
        Solving for EOMEA-CC2/MP2 A transitions.

Running a double precision version
      RI-EOMEA-CC2/MP2 right amplitudes will be solved using Davidson.
        Amplitudes will be solved using standard  algorithm.
     Hard-coded thresholds: 
     LinDepThresh=1.00e-15  NormThresh=1.00e-06  ReorthogonThresh=1.00e-02

      Roots     MaxVec    MaxIter   Precond   Conv      Shift    
      2         120       60        1         1.00e-08  0.00e+00  
 ------------------------------------------------------------------------------
      Iter ConvRoots NVecs ResNorm^2 Current eigenvalues (eV)
 ------------------------------------------------------------------------------
      0    0      2     1.89e-04   0.0086   0.0330   
      1    0      4     1.12e-04   0.0031   0.0323   
      2    0      6     6.74e-05   -0.0079   0.0318   
      3    0      8     1.65e-05   -0.0121   0.0317   
      4    0      10    1.15e-05   -0.0135   0.0316   
      5    0      12    2.96e-06   -0.0140   0.0315   
      6    0      14    7.50e-05   -0.0149   0.0313   
      7    0      16    5.60e-03   -0.9458   -0.0139   
      8    0      18    5.64e-04   -1.2540   -0.0140   
      9    0      20    1.05e-04   -1.2826   -0.0140   
      10   0      22    2.27e-05   -1.2869   -0.0140   
      11   0      24    3.12e-06   -1.2877   -0.0140   
      12   1      26    6.07e-07   -1.2879   -0.0140*  
      13   1      27    1.36e-07   -1.2879   -0.0140*  
      14   1      28    2.65e-08   -1.2880   -0.0140*  
      15   1      29    6.06e-09   -1.2879   -0.0140*  
      16   2      30    1.28e-09   -1.2879*  -0.0140*  

     Davidson procedure converged

 EOMEA transition 1/A
 Total energy = -648.18269047 a.u.  Excitation energy = -1.2879 eV.
 R1^2 = 0.9069  R2^2 = 0.0931  Res^2 = 1.47e-09
 Conv-d = yes

 Amplitude    Transitions between orbitals
  0.6654       infty       ->    89 (A) B                   
  0.5873       infty       ->    87 (A) B                   
  0.2230       infty       ->    82 (A) B                   
  0.1319       infty       ->    83 (A) B                   

              Summary of significant orbitals:

               Number  Type             Irrep      Energy
               82      Vir  Beta       82 (A)      0.0194
               83      Vir  Beta       83 (A)      0.0202
               87      Vir  Beta       87 (A)      0.0231
               89      Vir  Beta       89 (A)      0.0234


 EOMEA transition 2/A
 Total energy = -648.13587360 a.u.  Excitation energy = -0.0140 eV.
 R1^2 = 0.9975  R2^2 = 0.0025  Res^2 = 1.08e-09
 Conv-d = yes

 Amplitude    Transitions between orbitals
 -0.8797       infty       ->    49 (A) B                   
 -0.3241       infty       ->    54 (A) B                   
  0.1798       infty       ->    55 (A) B                   
 -0.1515       infty       ->    62 (A) B                   

              Summary of significant orbitals:

               Number  Type             Irrep      Energy
               49      Vir  Beta       49 (A)      0.0003
               54      Vir  Beta       54 (A)      0.0022
               55      Vir  Beta       55 (A)      0.0025
               62      Vir  Beta       62 (A)      0.0062


Running a double precision version
      RI-EOMEA-CC2/MP2 left amplitudes will be solved using Davidson.
        Amplitudes will be solved using MOM  algorithm.
     Hard-coded thresholds: 
     LinDepThresh=1.00e-15  NormThresh=1.00e-06  ReorthogonThresh=1.00e-02

      Roots     MaxVec    MaxIter   Precond   Conv      Shift    
      2         120       60        1         1.00e-08  0.00e+00  
 ------------------------------------------------------------------------------
      Iter ConvRoots NVecs ResNorm^2 Current eigenvalues (eV)
 ------------------------------------------------------------------------------
      0    0      2     4.66e-03   -1.2879   -0.0140   
      1    0      4     1.96e-03   -1.2879   -0.0140   
      2    0      6     7.70e-05   -1.2879   -0.0140   
      3    0      8     7.05e-06   -1.2879   -0.0140   
      4    0      10    1.75e-06   -1.2879   -0.0140   
      5    1      12    1.45e-07   -1.2879   -0.0140*  
      6    1      13    1.49e-07   -1.2879   -0.0140*  
      7    1      14    1.76e-08   -1.2879   -0.0140*  
      8    2      15    6.05e-09   -1.2879*  -0.0140*  

     Davidson procedure converged

 Excited state properties for  EOMEA-CC2 transition 1/A
 Dipole moment (a.u.): 2.452672 (X 2.222047, Y -1.031862, Z -0.115618)
 R-squared (a.u.): 2524.770820 (XX 1491.108652, YY 953.845576, ZZ 79.816592)
 Gauge origin (a.u.): (0.000000, 0.000000, 0.000000)
 Angular momentum (a.u.) against gauge origin: 
 (X 0.016383i, Y 0.049331i, Z -0.003720i)
 Traces of the OPDMs: Tr(AA) 48.000000, Tr(BB) 49.000000

 Excited state properties for  EOMEA-CC2 transition 2/A
 Dipole moment (a.u.): 15.136838 (X -14.155667, Y 4.999628, Z 1.935122)
 R-squared (a.u.): 3409.442736 (XX 1913.375134, YY 1176.766517, ZZ 319.301086)
 Gauge origin (a.u.): (0.000000, 0.000000, 0.000000)
 Angular momentum (a.u.) against gauge origin: 
 (X 0.016522i, Y 0.051638i, Z 0.001566i)
 Traces of the OPDMs: Tr(AA) 48.000000, Tr(BB) 49.000000


 EOMEA-CC2  CPU 7191.07 s  wall 332.04 s

 Start computing the transition properties

 ------------------------------------------------------------------------------
 State A: eomea_cc2/b: 1/A
 State B: cc2: 0/A

       ***    Dyson orbital calculation   *** 

 EOM-EA-CC2 state  1/A -- Reference  transition
 Energy difference = -1.2879 eV.

 Left Dyson orbital norm is 0.9583

Left beta Dyson orbital in the MO basis (canonical Q-Chem's ordering):
0  1.3145e-17  
1  -2.2514e-16 
2  5.9794e-16  
3  5.9646e-17  
4  -6.9733e-16 
5  -8.3312e-17 
6  -4.4807e-16 
7  3.5573e-16  
8  2.0070e-16  
9  -5.0024e-16 
10 3.6290e-16  
11 -1.8224e-16 
12 2.4312e-16  
13 -6.3958e-05 
14 -5.1507e-04 
15 -1.2106e-04 
16 -1.9765e-04 
17 -4.8035e-05 
18 -1.1956e-05 
19 -4.2889e-04 
20 -2.0310e-04 
21 -8.8679e-05 
22 -7.2042e-04 
23 -9.3573e-04 
24 1.0140e-03  
25 2.8630e-04  
26 8.2647e-05  
27 1.0676e-04  
28 -1.9404e-04 
29 -1.0231e-03 
30 3.5413e-02  
31 2.3596e-03  
32 1.5747e-03  
33 2.2968e-03  
34 1.6350e-02  
35 4.0291e-03  
36 2.6145e-02  
37 -1.4592e-03 
38 7.3935e-03  
39 7.7521e-02  
40 9.2467e-03  
41 -1.3759e-02 
42 2.0579e-03  
43 1.7675e-02  
44 4.3434e-04  
45 9.0477e-04  
46 9.7163e-03  
47 3.0547e-04  
48 1.0614e-03  
49 4.7062e-04  
50 -8.1059e-04 
51 -3.0735e-03 
52 1.9580e-04  
53 -2.5534e-04 
54 -5.3236e-03 
55 4.9291e-03  
56 -2.8541e-03 
57 -3.9055e-03 
58 -3.9694e-04 
59 -1.2339e-03 
60 -1.3649e-03 
61 -5.9705e-03 
62 -4.2837e-04 
63 1.3624e-02  
64 -2.3914e-02 
65 1.2422e-02  
66 -1.6944e-02 
67 2.2161e-03  
68 2.5054e-03  
69 7.0226e-03  
70 -7.2896e-03 
71 -2.3734e-03 
72 -1.5578e-03 
73 1.9569e-02  
74 6.7313e-03  
75 2.8226e-02  
76 -1.7484e-02 
77 -4.9217e-03 
78 -2.0977e-03 
79 1.8150e-02  
80 3.7831e-02  
81 2.3415e-01  
82 1.3837e-01  
83 -2.6338e-02 
84 5.3377e-02  
85 -3.5189e-02 
86 6.1441e-01  
87 -4.7293e-02 
88 6.9586e-01  
89 5.3137e-02  
90 -9.2382e-02 
91 7.6657e-02  
92 -7.0326e-02 
93 5.0466e-02  
94 2.9447e-02  
95 2.3561e-02  
96 1.6452e-02  
97 -1.9297e-02 
98 7.4357e-03  
99 -1.3715e-03 
1003.2046e-02  
1013.9065e-04  
102-5.9517e-02 
1032.3305e-02  
104-4.5502e-02 
105-1.8058e-02 
1063.1496e-02  
1071.7997e-02  
1081.0298e-02  
1092.0713e-03  
1101.4426e-03  
111-4.4518e-03 
112-5.8147e-04 
1131.9307e-02  
114-9.2969e-03 
1158.3566e-03  
1164.1493e-04  
1171.9408e-02  
118-1.2902e-02 
1191.7713e-03  
1207.9509e-03  
121-8.4341e-03 
1222.6960e-02  
1238.5148e-03  
124-1.1939e-02 
1251.1926e-03  
1262.9588e-03  
1279.2520e-03  
1282.1302e-03  
129-1.2004e-03 
1305.0027e-03  
131-7.6091e-03 
132-8.9614e-03 
133-8.0946e-04 
1343.8948e-03  
1355.1713e-03  
136-1.6641e-03 
137-1.4968e-03 
1382.5825e-04  
1392.8198e-03  
1403.9450e-03  
1415.4170e-03  
1422.0691e-02  
143-3.6069e-03 
1443.1183e-03  
1451.6044e-03  
1462.9498e-03  
1473.3178e-04  
148-3.0327e-03 
149-4.9659e-03 
150-7.9827e-04 
1511.4332e-03  
152-2.8726e-03 
1536.5141e-05  
154-8.4694e-04 
1559.9873e-04  
156-6.3886e-03 
157-4.8308e-03 
1585.8873e-03  
1592.8597e-03  
1601.9312e-02  
1612.2522e-04  
1621.1429e-03  
1633.7473e-03  
1643.2732e-03  
165-4.5147e-03 
1661.8520e-03  
1675.3932e-03  
1684.4557e-03  
169-4.3323e-03 
170-2.7364e-04 
171-5.8660e-04 
1721.6138e-03  
1732.2691e-03  
1746.8120e-03  
1751.2804e-02  
1762.8179e-03  
177-7.9915e-04 
1784.5206e-03  
179-5.5611e-03 
1801.2412e-02  
1811.4680e-03  
1821.0991e-02  
183-5.8226e-03 
1842.6397e-03  
1852.5668e-03  
1862.0880e-03  
1872.1901e-04  
188-7.9827e-04 
1893.9822e-03  
1908.2971e-03  
1912.4217e-03  
192-3.0731e-03 
1932.3606e-03  
1947.1162e-03  
195-8.2678e-04 
1961.1703e-03  
197-2.1752e-03 
198-7.9094e-04 
199-1.2408e-03 
200-1.7853e-04 
2011.7717e-03  
202-4.6132e-03 
203-3.7167e-03 
2042.3005e-03  
2052.0004e-03  
2062.7555e-04  
2078.2572e-04  
2081.4681e-03  
2094.4633e-03  
210-1.8993e-04 
2111.3920e-03  
2122.3332e-03  
2132.0958e-04  
214-3.0170e-03 
2153.0719e-03  
2169.3499e-03  
2175.1039e-03  
218-3.7061e-03 
2193.0208e-03  
2207.7729e-03  
2212.4234e-03  
222-6.4732e-03 
2235.9150e-03  
2249.4492e-03  
225-6.0285e-03 
226-6.7124e-03 
2273.5110e-03  
228-1.7079e-02 
2293.4237e-04  
230-7.7187e-03 
231-2.8474e-02 
232-5.7102e-03 
2331.4924e-02  
2347.1404e-03  
2352.6319e-03  
236-4.7986e-03 
237-9.3827e-03 
2382.6538e-03  
2396.6404e-03  
2401.7876e-03  
2413.6758e-03  
2427.3383e-03  
2437.2691e-03  
244-5.6304e-03 
2451.1277e-03  
2461.3444e-03  
2477.2529e-04  
2481.3502e-04  
2494.3870e-04  
250-7.0108e-04 
2517.7891e-05  
2522.5076e-03  
253-1.2082e-03 
254-8.6115e-04 
255-1.1572e-04 
256-6.6104e-03 
257-1.0170e-03 
2584.4182e-04  
2591.6163e-03  
2601.3842e-03  
2619.7096e-04  
2622.4686e-03  
2636.4137e-04  
264-9.0113e-04 
265-6.4799e-03 
266-3.4880e-03 
2671.9250e-03  
2682.2215e-04  
269-2.7776e-03 
2708.0418e-04  
271-2.3764e-03 
272-5.8868e-03 
2739.6218e-04  
274-5.3936e-04 
2753.4579e-04  
2761.0495e-03  
277-1.8693e-03 
2786.6089e-04  
279-6.0040e-05 
280-1.1800e-03 
2811.7007e-04  
282-2.0001e-03 
2831.1926e-03  
2847.6981e-04  
285-1.1711e-04 
286-4.7668e-04 
287-1.5883e-04 
288-4.6465e-04 
289-1.9232e-03 
2901.9527e-03  
2911.2608e-03  
292-2.1738e-03 
2934.7160e-04  
2945.0516e-04  
295-5.5705e-04 
296-3.6796e-04 
2977.7466e-04  
298-9.6478e-05 
299-3.2882e-05 
300-5.4776e-04 
301-1.4625e-03 
302-4.8041e-04 
303-1.3026e-04 
304-2.7917e-05 
3051.7225e-03  
306-1.9756e-03 
3072.9551e-03  
3081.6813e-03  
309-6.5414e-04 
3101.9656e-03  
311-9.1834e-05 
3123.7107e-04  
3137.4105e-04  
314-6.6075e-04 
315-3.9159e-04 
316-1.6552e-03 
317-1.9559e-03 
3183.1012e-04  
3192.5439e-04  
320-2.7963e-03 
321-2.6868e-03 
322-6.7970e-05 
323-2.2227e-04 
324-1.9105e-04 
3258.4357e-05  
3261.1995e-03  
327-1.6056e-05 
3282.6127e-03  
329-3.6252e-03 
330-9.7592e-04 
3318.8591e-05  
332-8.0925e-04 
3336.2362e-04  
334-1.0063e-03 
3355.7383e-04  
336-6.7249e-04 
337-1.5050e-03 
338-1.5021e-03 
3392.8580e-04  
3402.1407e-03  
3411.6392e-03  
342-2.1660e-03 
343-2.0750e-04 
3444.0366e-03  
345-7.5175e-03 
3461.2603e-02  
3471.5521e-02  
3481.7681e-03  
3492.8174e-03  
350-4.1102e-03 
3514.1183e-04  
3522.6511e-03  
3531.9087e-04  
354-2.8316e-05 
355-3.3047e-04 
3561.8123e-03  
3573.8033e-03  
358-6.6287e-04 
3594.2525e-03  
3606.4297e-04  
3613.3781e-04  
3623.9745e-04  
3632.1187e-03  
3643.0688e-03  
365-8.9727e-04 
366-2.3611e-03 
3673.1841e-04  
3682.7628e-03  
369-2.1296e-04 
3701.9929e-03  
3712.5870e-05  
372-1.1119e-03 
3731.0162e-04  
374-4.7163e-04 
3757.4866e-04  
3765.1647e-04  
3771.3053e-04  
3784.0442e-04  
379-1.9620e-03 
3801.6508e-03  
381-9.5684e-04 
3825.6529e-03  
3833.3470e-04  
3843.5969e-04  
385-6.3470e-05 
3869.8022e-04  
387-2.4252e-04 
388-2.0306e-04 
3898.4635e-05  
3901.5678e-04  
3912.3779e-04  
392-2.8684e-04 
393-1.2692e-04 
394-5.1956e-04 
395-8.4747e-04 
3962.3201e-04  
3973.6656e-04  
3982.3748e-04  
3999.5238e-06  
4009.9504e-04  
4017.8759e-05  
4022.1368e-04  
4038.2530e-06  
404-1.5732e-04 
4053.1293e-04  
406-3.8987e-05 
407-2.5367e-04 
4081.2412e-04  
409-2.1023e-04 
4101.5996e-04  
411-1.5500e-04 
412-7.6771e-05 
413-3.6882e-04 
4144.8019e-04  
4154.0344e-04  
416-1.0966e-03 
417-4.7861e-04 
418-3.3180e-03 
419-3.0477e-05 
420-4.6377e-04 
421-4.1083e-04 
422-2.6809e-03 
423-7.9477e-04 
424-1.5051e-03 
425-1.8264e-03 
4267.7900e-04  
427-8.3871e-05 
4281.0311e-03  
4292.3636e-04  
4303.5060e-04  
4318.3201e-05  
4321.0887e-03  
433-1.6086e-04 
4341.2969e-03  
4351.9586e-04  
436-1.6173e-03 
437-1.7133e-03 
4381.2345e-03  
4391.3198e-03  
4401.6403e-03  
441-4.2374e-04 
442-1.0292e-03 
443-1.2715e-03 
444-1.8099e-04 
445-4.4555e-04 
446-3.1456e-04 
4472.3329e-04  
4487.4656e-05  
449-5.1042e-05 
450-1.7648e-04 
451-5.1835e-05 
452-3.1293e-04 
453-6.4695e-04 
454-7.8361e-04 
455-5.3787e-04 
456-7.5874e-04 
457-7.2387e-05 
4585.3761e-04  
4597.2159e-04  
4604.3334e-04  
461-2.7237e-04 
462-1.4750e-04 
4632.4090e-04  
464-1.7435e-04 
465-8.4775e-04 
4661.0826e-04  
4675.4851e-05  
4682.6601e-04  
469-5.8577e-05 
4705.4423e-06  
4713.5672e-05  
4729.8033e-05  
4734.0386e-05  
474-8.6077e-05 
475-9.9257e-05 
4761.6177e-04  
4771.5802e-04  
478-2.3547e-04 
479-1.6540e-04 
4802.8327e-05  
4812.7013e-04  
482-3.3514e-05 
4832.3905e-04  
484-1.1529e-04 
4858.8773e-05  
4869.0713e-05  
4879.2146e-05  
4882.5530e-04  
4891.9118e-04  
490-8.0862e-05 
491-7.7506e-06 
492-8.3862e-05 
493-3.0984e-05 
494-1.4822e-04 
4951.2961e-05  
496-3.5135e-05 
4977.1786e-07  
498-6.7375e-05 
4991.1582e-05  
5001.4176e-04  
501-1.9350e-04 
5022.0029e-05  
5031.0183e-04  
504-4.1174e-05 
5055.2374e-05  
506-1.1104e-05 
507-1.0039e-05 
5083.8837e-05  
5092.3792e-06  
510-5.2300e-06 
5112.9896e-05  
5122.0507e-05  
513-2.5211e-05 
514-1.1619e-04 
5151.1139e-04  
5162.3107e-05  
517-1.0248e-05 
518-2.6448e-05 
519-4.2201e-05 
5201.5981e-05  
521-6.9871e-05 
5222.3446e-05  
523-1.4389e-04 
524-1.9737e-04 
5251.0483e-05  
526-5.2910e-05 
527-1.2534e-05 
528-5.1464e-07 
529-3.2520e-05 
5303.2179e-05  
5319.8184e-06  
532-5.1103e-06 
5335.5496e-05  
5341.5836e-05  
535-5.9505e-05 
536-1.0595e-05 
5371.5786e-06  
538-9.7489e-06 

Decomposition over AOs for the left beta Dyson orbital:
-2.16907720e-04
-4.79511716e-03
5.42431365e-02
8.00930493e-02
-5.38803490e-02
-1.13846630e-02
-7.81268575e-03
-5.55086436e-02
-1.16028476e-02
-9.66980234e-03
-8.96475773e-03
-6.36761307e-03
2.11058923e-01
5.01163489e-02
2.82380441e-02
2.08413673e-02
2.38529685e-02
-1.64237448e-02
1.52615559e-01
-3.25655133e-02
1.17455650e-01
-1.78905194e-01
6.38955862e-02
1.02558700e-01
1.27039410e-01
3.98874905e-02
-9.47060012e-03
-4.54538333e-02
1.66514420e-03
-8.11737394e-03
-1.86040580e-03
-1.89778102e-02
-1.22070061e-03
3.03135950e-02
-2.70036480e-03
5.99582615e-04
6.72231235e-03
-2.19150291e-02
-1.51084473e-04
-6.08933802e-03
-8.88087912e-03
7.42895412e-02
-6.12621091e-02
-3.41669507e-02
1.69955256e-02
-7.72137208e-02
7.75995889e-03
4.07442686e-02
-1.40772390e-02
-1.16735882e-02
3.51458566e-01
4.78139991e-02
1.33080144e-02
6.71197770e-02
-5.14529928e-02
1.94160401e-03
9.14034991e-02
8.56422119e-02
4.23554025e-03
-1.42684686e-01
-5.85194303e-02
-1.17031229e-01
4.05470232e-01
-1.38103476e-02
-7.10235770e-02
1.21525671e-01
-8.00008697e-04
3.64209704e-02
1.99213487e-03
7.28166934e-03
-1.44212343e-04
2.30021840e-02
4.28589178e-02
3.31331601e-03
1.47207426e-02
-1.40677981e-02
-2.98338616e-06
-2.23823688e-04
5.03335988e-03
1.47986748e-02
3.44558842e-02
-5.96837174e-02
2.44383143e-03
-3.83229599e-02
1.81476325e-02
1.75492810e-02
-2.24231179e-05
2.93456026e-03
3.16576937e-01
-1.62824016e-02
-4.17228818e-02
4.87264236e-02
-5.63377335e-02
3.84847265e-02
1.74627624e-01
-1.03305613e-01
-3.97345617e-03
3.05077762e-02
3.83709706e-02
1.19876771e-01
-1.42270413e-01
4.10522725e-02
1.05393098e-01
-1.74416066e-01
1.45923331e-04
-2.35655010e-02
5.88065015e-04
6.61582429e-03
-6.01527111e-04
-2.33788427e-02
-1.07667082e-02
-1.90645038e-04
-1.72085165e-02
-2.28524916e-02
-5.27793768e-05
1.43191489e-03
2.80597750e-03
2.24509639e-02
-3.42133917e-02
-2.35395609e-03
3.44707954e-03
-1.04920962e-02
7.82312555e-02
3.40474677e-02
1.93998521e-03
-7.76319883e-03
-2.95824460e-01
1.71419840e-03
-4.62793239e-02
-3.34157424e-02
6.36330022e-02
4.06105175e-02
-1.54270701e-01
4.69333683e-02
-5.70860943e-02
-7.25981380e-02
6.07288875e-02
5.58689795e-02
2.34895319e-01
-2.83736213e-02
-9.94469416e-03
1.26178840e-01
-1.25211647e-03
-1.61693483e-02
3.66363747e-04
-1.72527669e-02
5.90027974e-04
-2.20598240e-02
-9.29396474e-03
1.19029950e-03
7.67771361e-03
-1.25705078e-02
1.64646576e-04
6.47658762e-03
2.84298282e-03
-1.14821185e-01
9.18197099e-02
2.14479798e-02
-1.69159332e-02
2.98177532e-02
-2.64202190e-02
-2.36140029e-02
6.01723696e-03
-2.73668364e-02
-3.24783921e-01
-2.00503583e-02
3.36238536e-02
-6.21440502e-02
4.31336050e-02
-5.61330328e-02
-9.03705525e-02
7.24264074e-02
9.98158847e-02
2.08097007e-01
8.42648296e-03
-1.15384778e-01
-5.01945137e-01
-6.31237696e-03
-4.34606323e-02
-1.41682463e-01
-7.18386444e-05
3.40776372e-02
-3.63270258e-03
1.42058913e-02
-8.90511319e-04
-5.58961401e-03
3.88613822e-02
-4.89111925e-03
1.44380211e-02
2.18577770e-02
2.71993634e-04
5.03693350e-03
-6.04220065e-02
-7.92398776e-02
4.96241466e-02
3.28686663e-02
-3.58432024e-02
4.94823291e-02
-4.22096171e-02
-6.27240706e-02
1.25911276e-02
-8.07109163e-03
-2.28782953e-01
-2.08512908e-02
4.75982878e-02
-2.72575966e-02
-4.38529413e-02
2.13248298e-02
-1.59334165e-01
-9.52435449e-03
-2.00004977e-02
1.47871026e-01
-4.67647786e-02
1.00164237e-01
-8.79012428e-02
-4.08015691e-02
1.41242644e-02
8.04589515e-02
-1.08275380e-03
-1.58643441e-02
2.81948517e-03
1.06854571e-02
1.84767822e-03
-1.10048610e-02
1.63579234e-03
2.50499228e-04
-5.59191194e-03
3.50243883e-02
3.18415894e-05
3.56837341e-04
-1.96371916e-03
-2.21475802e-02
-1.29528541e-02
-1.10420772e-02
1.00580301e-02
1.79732298e-03
5.41604403e-02
-1.31364202e-02
8.41718448e-03
1.37064268e-02
-4.03685605e-01
1.07409544e-03
2.21931610e-03
-4.21040523e-02
1.39376314e-03
-1.04244321e-03
-1.62902323e-01
1.88962210e-04
7.85984812e-04
4.44599355e-02
5.84853901e-02
-3.34797365e-02
-7.07572191e-02
-7.33038051e-02
1.50801721e-01
-7.97442874e-02
-7.94572683e-05
1.19747953e-03
2.38137714e-05
1.20944331e-04
-5.30392320e-06
-2.38458428e-04
-8.96776559e-04
-3.22724541e-04
2.45048433e-04
-2.64328335e-04
1.07362908e-04
-2.26324330e-03
1.11699506e-02
-4.10607181e-02
6.04759119e-02
-3.94679074e-02
-1.04350837e-02
5.44991057e-02
-5.20053861e-02
-2.30461074e-02
-2.72701610e-03
-8.79382821e-04
-2.64975548e-02
5.21628141e-03
2.37700566e-03
6.10756191e-03
-1.15062679e-02
-2.03355868e-03
-2.10915676e-02
5.06266934e-02
-5.75186716e-02
2.82129470e-02
4.36366562e-02
-4.77061488e-02
-1.18615916e-01
1.53945775e-02
-4.46333793e-02
8.92613308e-02
5.60300839e-05
7.36833016e-03
2.50226172e-05
1.31862501e-02
-2.03387710e-04
1.02981782e-03
-5.56397261e-03
3.50827706e-04
-4.20141881e-03
1.37395656e-03
-5.95079016e-05
-1.87885744e-03
1.04269536e-03
1.98506782e-02
4.42152355e-02
3.20875249e-02
8.39799853e-03
9.48190242e-03
-7.30218010e-02
-5.77188496e-03
3.83900703e-04
3.05389092e-02
4.01665848e-01
-1.30734753e-04
3.49220745e-03
4.07652435e-02
-3.26946003e-03
7.74575691e-03
1.59980510e-01
1.46385626e-02
-1.37023782e-02
-3.73914019e-02
-1.70253749e-02
-2.37469711e-02
4.54939583e-02
9.43489562e-02
8.25312411e-02
1.09663917e-01
-4.97395992e-05
4.84490470e-04
-1.03735826e-05
6.45303771e-04
-4.15604456e-05
-1.26494304e-04
-1.35299397e-03
2.88937246e-04
6.95035015e-05
-6.55219956e-05
-2.41400189e-04
7.19627664e-03
6.19097195e-03
3.57675019e-02
4.99887648e-02
6.22721311e-03
-1.08141344e-03
-2.93591508e-03
1.61322340e-01
8.01315038e-03
6.39699322e-03
-1.28712365e-02
1.32514198e-01
-8.14811042e-04
-9.06471304e-04
2.38950083e-02
-1.50063469e-02
-1.20194484e-02
6.90325420e-02
9.15247452e-02
-2.97207898e-02
1.27523375e-02
3.58906205e-01
-4.27874054e-03
-1.08962312e-01
-1.20948161e-01
-2.66847762e-01
2.91447793e-01
1.58250153e-04
-6.64995051e-05
2.09618276e-04
3.82624108e-03
-9.34261768e-04
-7.50666452e-04
9.64215681e-05
-8.64066002e-04
2.82347905e-03
3.22484835e-04
-3.91781390e-04
-1.59244588e-02
-2.02906579e-03
-2.90847481e-02
-2.45849094e-02
-5.59079886e-02
-5.10600203e-03
-1.32662099e-02
-1.19718872e-02
4.07372439e-02
1.85361188e-02
-4.30113453e-03
-1.08345115e-02
3.98063387e-03
-7.20813409e-03
-8.79571776e-03
-1.89066963e-03
-2.77542642e-02
-2.10096986e-02
-3.91920080e-02
-2.62852067e-01
4.03521543e-02
-5.26759453e-03
1.14419140e-01
-8.75353745e-02
-2.08739808e-02
4.61304592e-02
-6.23040906e-02
2.22419050e-03
5.34241816e-03
2.64922017e-03
-6.26660574e-03
-4.54918228e-04
-3.30327938e-03
3.46677498e-03
3.21369443e-03
-3.15345821e-03
-1.43705584e-03
1.59424998e-04
-8.51367766e-03
-5.31927681e-03
-3.84729305e-02
-1.48848885e-03
-7.56452897e-02
1.00360541e-02
6.08812263e-04
-8.34246685e-02
5.90198186e-02
-1.62787744e-02
-5.94030693e-03
-1.21739253e-01
-1.53084168e-03
-4.67033616e-04
-2.21644474e-02
-6.14458871e-03
-1.53158000e-02
-6.23946136e-02
-2.52665075e-02
2.04938927e-02
-1.04175765e-02
-1.62377908e-01
1.72349403e-01
1.45342191e-01
4.65990361e-03
-3.81139748e-01
-3.03943557e-01
-7.20280116e-04
1.93598517e-03
-3.98285510e-05
-2.99229456e-03
4.21096347e-04
1.44673000e-04
1.48524489e-03
1.14807619e-03
-1.80945322e-03
-7.85581203e-04
3.55059413e-04
1.47737992e-02
-3.93259375e-04
-6.18955759e-03
-4.08829759e-02
7.15286266e-02
-7.53581853e-03
-3.17085756e-03
-2.32895296e-02
-1.79780532e-02
-1.78496663e-02
6.36667587e-03
1.42617050e-02
-8.78556133e-03
-2.60320369e-03
9.89080898e-03
-8.88843897e-03
-1.95506938e-02
1.38952997e-02
-1.07198916e-01
-2.44074614e-01
-5.57279243e-02
6.05707337e-02
1.31737052e-01
6.85235251e-02
4.20575216e-02
5.78401840e-02
3.62991958e-02
1.14543501e-04
6.89016788e-04
-2.98382872e-03
7.26645442e-03
2.53379570e-03
-2.05854398e-03
1.71481853e-03
-3.44863167e-03
3.67242404e-03
-1.65660826e-03
-7.54807232e-02
-5.20824607e-02
-1.60620366e-01
1.79974772e-01
-6.66782837e-02
-1.35800449e-01
5.59719167e-04
9.80859722e-05
-1.17226208e-04
3.15796726e-03
-4.37942924e-03
1.05816563e-02
1.85189405e-03
2.38244246e-03
-2.35230006e-03
1.68746906e-01
1.87607425e-01
1.28225504e-02
-7.82603758e-05
-6.26967279e-05
-1.31441846e-03
1.94924177e-04
1.07336842e-04
-1.49858486e-03
7.52882811e-02
5.69212494e-02
8.84838155e-02
-1.86306213e-01
-1.88783872e-02
1.35256719e-01
-5.03976737e-04
-1.94802651e-04
-2.68765134e-04
-2.12598060e-03
5.00274894e-03
1.10707880e-02
3.20064265e-02
7.04614276e-04
1.41001101e-01
1.39879522e-01
7.42330543e-02
-6.21478273e-02
-4.20499785e-04
3.55515828e-05
3.13071898e-04
5.43823958e-03
-4.51230835e-03
2.21454466e-03
-6.73995737e-03
-1.36409614e-02
-8.81419373e-02
-1.20352508e-01
-1.58145022e-01
8.83868789e-02
-4.73768550e-04
1.82336739e-04
1.56094544e-04
-4.69011681e-04
-2.95309310e-03
-6.60814307e-04
-3.28114143e-02
3.22176613e-02
2.43763053e-02
1.04717459e-01
-5.40291385e-02
1.53604128e-01
-8.59564140e-05
1.19150765e-05
5.49631069e-04
-6.53505338e-03
1.58698543e-03
1.45170569e-02
3.47988079e-02
-2.60414623e-02
-3.46034366e-02
-1.31547135e-01
-2.49950039e-02
-2.14140445e-01
3.33660467e-05
-1.62518722e-04
-6.44155713e-04
5.78465484e-03
-1.94236710e-03
-1.31571561e-02
5.58050080e-03
1.93563209e-02
8.81799457e-02
7.26220834e-02
1.77436970e-01
-2.82227814e-02
5.32206026e-04
-5.36167835e-05
-6.75315604e-05
-2.26684125e-03
-3.68647818e-03
8.47074048e-04
-3.39871644e-02
1.06035074e-03
-1.56009849e-01
-1.89373761e-01
-2.45621574e-02
8.41419644e-02
3.93151338e-04
-1.52084438e-04
-3.54273543e-04
-7.22848895e-03
2.84936053e-04
-3.04309465e-03
3.37596239e-03
-6.85673442e-03
6.15191057e-02
4.70011080e-02
-5.09848737e-02
8.80325748e-03
1.69168881e-04
-2.33301032e-04
-7.58473743e-03
-7.24743100e-04
-9.54763653e-04
-4.18132148e-03
   *****

 Right Dyson orbital norm is 0.9583

Right beta Dyson orbital in the MO basis (canonical Q-Chem's ordering):
0  1.3145e-17  
1  -2.2514e-16 
2  5.9794e-16  
3  5.9646e-17  
4  -6.9733e-16 
5  -8.3312e-17 
6  -4.4807e-16 
7  3.5573e-16  
8  2.0070e-16  
9  -5.0024e-16 
10 3.6290e-16  
11 -1.8224e-16 
12 2.4312e-16  
13 -6.3958e-05 
14 -5.1507e-04 
15 -1.2106e-04 
16 -1.9765e-04 
17 -4.8035e-05 
18 -1.1956e-05 
19 -4.2889e-04 
20 -2.0310e-04 
21 -8.8679e-05 
22 -7.2042e-04 
23 -9.3573e-04 
24 1.0140e-03  
25 2.8630e-04  
26 8.2647e-05  
27 1.0676e-04  
28 -1.9404e-04 
29 -1.0231e-03 
30 3.5413e-02  
31 2.3596e-03  
32 1.5747e-03  
33 2.2968e-03  
34 1.6350e-02  
35 4.0291e-03  
36 2.6145e-02  
37 -1.4592e-03 
38 7.3935e-03  
39 7.7521e-02  
40 9.2467e-03  
41 -1.3759e-02 
42 2.0579e-03  
43 1.7675e-02  
44 4.3434e-04  
45 9.0477e-04  
46 9.7163e-03  
47 3.0547e-04  
48 1.0614e-03  
49 4.7062e-04  
50 -8.1059e-04 
51 -3.0735e-03 
52 1.9580e-04  
53 -2.5534e-04 
54 -5.3236e-03 
55 4.9291e-03  
56 -2.8541e-03 
57 -3.9055e-03 
58 -3.9694e-04 
59 -1.2339e-03 
60 -1.3649e-03 
61 -5.9705e-03 
62 -4.2837e-04 
63 1.3624e-02  
64 -2.3914e-02 
65 1.2422e-02  
66 -1.6944e-02 
67 2.2161e-03  
68 2.5054e-03  
69 7.0226e-03  
70 -7.2896e-03 
71 -2.3734e-03 
72 -1.5578e-03 
73 1.9569e-02  
74 6.7313e-03  
75 2.8226e-02  
76 -1.7484e-02 
77 -4.9217e-03 
78 -2.0977e-03 
79 1.8150e-02  
80 3.7831e-02  
81 2.3415e-01  
82 1.3837e-01  
83 -2.6338e-02 
84 5.3377e-02  
85 -3.5189e-02 
86 6.1441e-01  
87 -4.7293e-02 
88 6.9586e-01  
89 5.3137e-02  
90 -9.2382e-02 
91 7.6657e-02  
92 -7.0326e-02 
93 5.0466e-02  
94 2.9447e-02  
95 2.3561e-02  
96 1.6452e-02  
97 -1.9297e-02 
98 7.4357e-03  
99 -1.3715e-03 
1003.2046e-02  
1013.9065e-04  
102-5.9517e-02 
1032.3305e-02  
104-4.5502e-02 
105-1.8058e-02 
1063.1496e-02  
1071.7997e-02  
1081.0298e-02  
1092.0713e-03  
1101.4426e-03  
111-4.4518e-03 
112-5.8147e-04 
1131.9307e-02  
114-9.2969e-03 
1158.3566e-03  
1164.1493e-04  
1171.9408e-02  
118-1.2902e-02 
1191.7713e-03  
1207.9509e-03  
121-8.4341e-03 
1222.6960e-02  
1238.5148e-03  
124-1.1939e-02 
1251.1926e-03  
1262.9588e-03  
1279.2520e-03  
1282.1302e-03  
129-1.2004e-03 
1305.0027e-03  
131-7.6091e-03 
132-8.9614e-03 
133-8.0946e-04 
1343.8948e-03  
1355.1713e-03  
136-1.6641e-03 
137-1.4968e-03 
1382.5825e-04  
1392.8198e-03  
1403.9450e-03  
1415.4170e-03  
1422.0691e-02  
143-3.6069e-03 
1443.1183e-03  
1451.6044e-03  
1462.9498e-03  
1473.3178e-04  
148-3.0327e-03 
149-4.9659e-03 
150-7.9827e-04 
1511.4332e-03  
152-2.8726e-03 
1536.5141e-05  
154-8.4694e-04 
1559.9873e-04  
156-6.3886e-03 
157-4.8308e-03 
1585.8873e-03  
1592.8597e-03  
1601.9312e-02  
1612.2522e-04  
1621.1429e-03  
1633.7473e-03  
1643.2732e-03  
165-4.5147e-03 
1661.8520e-03  
1675.3932e-03  
1684.4557e-03  
169-4.3323e-03 
170-2.7364e-04 
171-5.8660e-04 
1721.6138e-03  
1732.2691e-03  
1746.8120e-03  
1751.2804e-02  
1762.8179e-03  
177-7.9915e-04 
1784.5206e-03  
179-5.5611e-03 
1801.2412e-02  
1811.4680e-03  
1821.0991e-02  
183-5.8226e-03 
1842.6397e-03  
1852.5668e-03  
1862.0880e-03  
1872.1901e-04  
188-7.9827e-04 
1893.9822e-03  
1908.2971e-03  
1912.4217e-03  
192-3.0731e-03 
1932.3606e-03  
1947.1162e-03  
195-8.2678e-04 
1961.1703e-03  
197-2.1752e-03 
198-7.9094e-04 
199-1.2408e-03 
200-1.7853e-04 
2011.7717e-03  
202-4.6132e-03 
203-3.7167e-03 
2042.3005e-03  
2052.0004e-03  
2062.7555e-04  
2078.2572e-04  
2081.4681e-03  
2094.4633e-03  
210-1.8993e-04 
2111.3920e-03  
2122.3332e-03  
2132.0958e-04  
214-3.0170e-03 
2153.0719e-03  
2169.3499e-03  
2175.1039e-03  
218-3.7061e-03 
2193.0208e-03  
2207.7729e-03  
2212.4234e-03  
222-6.4732e-03 
2235.9150e-03  
2249.4492e-03  
225-6.0285e-03 
226-6.7124e-03 
2273.5110e-03  
228-1.7079e-02 
2293.4237e-04  
230-7.7187e-03 
231-2.8474e-02 
232-5.7102e-03 
2331.4924e-02  
2347.1404e-03  
2352.6319e-03  
236-4.7986e-03 
237-9.3827e-03 
2382.6538e-03  
2396.6404e-03  
2401.7876e-03  
2413.6758e-03  
2427.3383e-03  
2437.2691e-03  
244-5.6304e-03 
2451.1277e-03  
2461.3444e-03  
2477.2529e-04  
2481.3502e-04  
2494.3870e-04  
250-7.0108e-04 
2517.7891e-05  
2522.5076e-03  
253-1.2082e-03 
254-8.6115e-04 
255-1.1572e-04 
256-6.6104e-03 
257-1.0170e-03 
2584.4182e-04  
2591.6163e-03  
2601.3842e-03  
2619.7096e-04  
2622.4686e-03  
2636.4137e-04  
264-9.0113e-04 
265-6.4799e-03 
266-3.4880e-03 
2671.9250e-03  
2682.2215e-04  
269-2.7776e-03 
2708.0418e-04  
271-2.3764e-03 
272-5.8868e-03 
2739.6218e-04  
274-5.3936e-04 
2753.4579e-04  
2761.0495e-03  
277-1.8693e-03 
2786.6089e-04  
279-6.0040e-05 
280-1.1800e-03 
2811.7007e-04  
282-2.0001e-03 
2831.1926e-03  
2847.6981e-04  
285-1.1711e-04 
286-4.7668e-04 
287-1.5883e-04 
288-4.6465e-04 
289-1.9232e-03 
2901.9527e-03  
2911.2608e-03  
292-2.1738e-03 
2934.7160e-04  
2945.0516e-04  
295-5.5705e-04 
296-3.6796e-04 
2977.7466e-04  
298-9.6478e-05 
299-3.2882e-05 
300-5.4776e-04 
301-1.4625e-03 
302-4.8041e-04 
303-1.3026e-04 
304-2.7917e-05 
3051.7225e-03  
306-1.9756e-03 
3072.9551e-03  
3081.6813e-03  
309-6.5414e-04 
3101.9656e-03  
311-9.1834e-05 
3123.7107e-04  
3137.4105e-04  
314-6.6075e-04 
315-3.9159e-04 
316-1.6552e-03 
317-1.9559e-03 
3183.1012e-04  
3192.5439e-04  
320-2.7963e-03 
321-2.6868e-03 
322-6.7970e-05 
323-2.2227e-04 
324-1.9105e-04 
3258.4357e-05  
3261.1995e-03  
327-1.6056e-05 
3282.6127e-03  
329-3.6252e-03 
330-9.7592e-04 
3318.8591e-05  
332-8.0925e-04 
3336.2362e-04  
334-1.0063e-03 
3355.7383e-04  
336-6.7249e-04 
337-1.5050e-03 
338-1.5021e-03 
3392.8580e-04  
3402.1407e-03  
3411.6392e-03  
342-2.1660e-03 
343-2.0750e-04 
3444.0366e-03  
345-7.5175e-03 
3461.2603e-02  
3471.5521e-02  
3481.7681e-03  
3492.8174e-03  
350-4.1102e-03 
3514.1183e-04  
3522.6511e-03  
3531.9087e-04  
354-2.8316e-05 
355-3.3047e-04 
3561.8123e-03  
3573.8033e-03  
358-6.6287e-04 
3594.2525e-03  
3606.4297e-04  
3613.3781e-04  
3623.9745e-04  
3632.1187e-03  
3643.0688e-03  
365-8.9727e-04 
366-2.3611e-03 
3673.1841e-04  
3682.7628e-03  
369-2.1296e-04 
3701.9929e-03  
3712.5870e-05  
372-1.1119e-03 
3731.0162e-04  
374-4.7163e-04 
3757.4866e-04  
3765.1647e-04  
3771.3053e-04  
3784.0442e-04  
379-1.9620e-03 
3801.6508e-03  
381-9.5684e-04 
3825.6529e-03  
3833.3470e-04  
3843.5969e-04  
385-6.3470e-05 
3869.8022e-04  
387-2.4252e-04 
388-2.0306e-04 
3898.4635e-05  
3901.5678e-04  
3912.3779e-04  
392-2.8684e-04 
393-1.2692e-04 
394-5.1956e-04 
395-8.4747e-04 
3962.3201e-04  
3973.6656e-04  
3982.3748e-04  
3999.5238e-06  
4009.9504e-04  
4017.8759e-05  
4022.1368e-04  
4038.2530e-06  
404-1.5732e-04 
4053.1293e-04  
406-3.8987e-05 
407-2.5367e-04 
4081.2412e-04  
409-2.1023e-04 
4101.5996e-04  
411-1.5500e-04 
412-7.6771e-05 
413-3.6882e-04 
4144.8019e-04  
4154.0344e-04  
416-1.0966e-03 
417-4.7861e-04 
418-3.3180e-03 
419-3.0477e-05 
420-4.6377e-04 
421-4.1083e-04 
422-2.6809e-03 
423-7.9477e-04 
424-1.5051e-03 
425-1.8264e-03 
4267.7900e-04  
427-8.3871e-05 
4281.0311e-03  
4292.3636e-04  
4303.5060e-04  
4318.3201e-05  
4321.0887e-03  
433-1.6086e-04 
4341.2969e-03  
4351.9586e-04  
436-1.6173e-03 
437-1.7133e-03 
4381.2345e-03  
4391.3198e-03  
4401.6403e-03  
441-4.2374e-04 
442-1.0292e-03 
443-1.2715e-03 
444-1.8099e-04 
445-4.4555e-04 
446-3.1456e-04 
4472.3329e-04  
4487.4656e-05  
449-5.1042e-05 
450-1.7648e-04 
451-5.1835e-05 
452-3.1293e-04 
453-6.4695e-04 
454-7.8361e-04 
455-5.3787e-04 
456-7.5874e-04 
457-7.2387e-05 
4585.3761e-04  
4597.2159e-04  
4604.3334e-04  
[...]
392-6.4604e-05 
393-2.0272e-05 
394-2.8899e-05 
395-6.4121e-05 
396-4.0191e-05 
397-4.1672e-05 
398-3.0596e-05 
399-3.6266e-05 
400-3.1805e-05 
401-7.9361e-05 
402-4.5532e-05 
4031.1453e-04  
4043.4302e-05  
405-1.0832e-05 
4066.1463e-05  
407-3.2941e-05 
408-3.3674e-05 
409-6.1578e-05 
4104.4151e-05  
411-9.6826e-05 
4121.4115e-05  
413-2.8693e-05 
414-6.2642e-05 
4151.3731e-05  
4166.6617e-05  
417-1.7339e-04 
4181.0751e-06  
4191.3391e-04  
4205.5466e-05  
421-1.3441e-04 
4221.2381e-05  
423-9.6273e-06 
424-1.5401e-05 
425-2.1290e-05 
4263.2667e-06  
4276.2029e-06  
4284.2364e-05  
4292.2356e-05  
430-3.2752e-05 
431-3.2846e-05 
432-6.7776e-05 
4335.6878e-05  
434-2.8310e-05 
4351.1665e-05  
4362.0749e-05  
4371.7046e-07  
438-8.9206e-06 
439-6.4900e-07 
4407.4865e-05  
4415.0436e-05  
442-3.0749e-05 
443-1.8333e-05 
4442.6507e-05  
4458.5973e-05  
4463.4078e-05  
4472.7762e-05  
448-1.0623e-04 
449-7.8824e-06 
4502.9716e-04  
451-8.4941e-05 
452-1.2381e-04 
4538.2455e-05  
454-1.0670e-04 
4553.9577e-05  
456-2.9722e-05 
457-2.2055e-05 
458-2.6379e-05 
4591.4730e-06  
4601.5595e-05  
4611.9653e-05  
462-4.8878e-05 
463-7.0548e-06 
4648.3101e-05  
465-2.0456e-05 
4661.4357e-05  
4671.6377e-05  
4683.6435e-05  
4691.5252e-04  
4706.1534e-05  
4712.3400e-05  
472-9.2045e-06 
473-2.7379e-04 
4741.2150e-04  
475-5.7255e-05 
4766.4433e-05  
477-1.2693e-05 
4783.2586e-05  
479-2.6827e-05 
4808.8007e-05  
4812.7756e-05  
4825.4801e-06  
483-4.5798e-05 
484-7.1895e-06 
4851.7193e-06  
486-1.1541e-05 
4874.0781e-05  
488-7.0875e-06 
489-4.7466e-06 
490-3.8008e-05 
4915.5642e-05  
4927.2421e-05  
4939.8133e-05  
494-4.2048e-05 
4951.5479e-04  
496-5.8961e-05 
497-4.7142e-05 
4982.0182e-05  
499-6.8327e-06 
500-2.5688e-05 
501-1.5844e-05 
5025.3839e-05  
5035.3443e-06  
5046.0482e-06  
505-1.7700e-05 
5064.2211e-07  
507-2.5721e-07 
5088.3130e-06  
509-1.1952e-05 
510-2.1457e-05 
511-8.9392e-05 
5121.4681e-05  
5133.0320e-05  
514-1.0875e-05 
5151.0598e-06  
516-2.3313e-06 
517-5.4104e-06 
518-1.0821e-06 
5195.0503e-06  
520-6.7072e-07 
5211.4140e-05  
522-1.7654e-05 
5231.6753e-06  
524-3.5815e-06 
5259.3682e-06  
526-1.2651e-05 
527-6.2897e-06 
528-6.2221e-06 
5291.1809e-05  
5303.1091e-07  
5311.9553e-05  
532-3.3323e-07 
533-4.5597e-06 
5342.4299e-05  
5351.1226e-05  
536-8.9305e-06 
5373.6970e-06  
538-4.0329e-06 

Decomposition over AOs for the right beta Dyson orbital:
4.83530132e-04
1.07099262e-02
4.20456085e-03
1.23307875e-01
8.63072169e-02
-1.40031875e-01
-3.76914288e-01
9.54784777e-01
-1.48536799e+00
8.09648209e-01
-9.51768934e-04
4.12120054e-03
-2.77827553e-03
-6.16971649e-03
-3.57723979e-03
-9.60302121e-05
-2.01813531e-02
2.68110242e-02
-4.16637918e-03
-5.63606982e-02
-1.21722756e-01
6.30308276e-02
4.04380486e-02
-2.38577078e-01
1.72016370e-02
3.14647322e-01
-5.33376294e-02
-1.49200104e-01
-2.16115786e-04
-5.93287732e-04
-1.47235929e-03
3.23143516e-04
-1.55109245e-03
1.60918279e-04
-4.64969166e-04
-2.69996338e-03
5.16943819e-05
-4.95374679e-04
2.64920584e-04
-5.95635820e-04
6.19164936e-03
-4.92478046e-02
-2.80365715e-02
-1.16935318e-01
-1.28100623e-01
5.19758273e-01
-1.59484446e+00
1.93177022e+00
-4.53699363e-03
3.59481869e-03
-3.99641151e-03
-1.15583177e-02
5.76655647e-03
-1.04881615e-03
-6.16793398e-02
-5.85378469e-02
-5.86930568e-03
4.24272943e-02
3.41039818e-02
-2.21490777e-02
-3.27839901e-02
9.44093977e-02
9.01957359e-03
-2.39283605e-01
-4.19294032e-03
-3.19535401e-02
-2.76286411e-05
-1.10144544e-04
-1.51273661e-03
-6.73031751e-05
-3.26353154e-04
-1.66042080e-03
-7.06648639e-04
-2.25098239e-03
-3.83331136e-04
-1.14919223e-03
2.24013595e-04
5.17165911e-03
-3.04398125e-04
4.82279682e-02
4.70043018e-03
-1.01157533e-01
2.25357311e-01
2.68846719e-01
-7.34408287e-01
-3.76492359e-01
5.48526437e-03
-3.89201956e-03
2.01291497e-03
-5.98381701e-03
3.15513255e-03
6.37840483e-04
7.07953372e-02
5.78717732e-02
7.87883847e-04
3.63581988e-02
8.62836425e-02
8.84237968e-03
1.76178915e-01
-5.08449483e-02
-2.91125136e-02
2.26881330e-01
-2.40865164e-02
1.88620760e-01
2.17939006e-04
1.51437689e-04
-9.40215761e-04
-1.09996212e-04
1.89906807e-05
9.26850615e-03
1.84418127e-04
-1.69391910e-03
1.19762927e-05
4.98205526e-03
3.33713139e-04
1.06154787e-02
1.46819195e-03
-3.44928472e-02
-1.49909916e-01
-9.68064037e-02
3.79098806e-01
1.63409387e-01
6.14139729e-01
-7.25111951e-01
1.29214701e-03
4.17362234e-03
1.14894913e-03
-4.75468875e-03
5.78629636e-03
6.31729040e-05
1.79351724e-02
5.47489720e-03
3.05304263e-03
2.92719327e-02
-1.08625770e-01
-7.88593967e-03
1.98347906e-01
-2.26651300e-02
2.29437923e-03
2.30418454e-01
8.20496105e-03
-1.92794920e-01
-2.68272935e-04
-1.11871049e-04
-6.52031133e-04
-2.52552260e-04
-4.22230190e-04
6.66492488e-03
-8.76767536e-05
-8.72665363e-04
-4.29083460e-04
1.49954132e-03
2.00886868e-04
-3.14599120e-03
-4.62007690e-03
-3.30473269e-03
-1.42763680e-01
-5.44276052e-02
8.93065647e-02
4.04717735e-03
-3.58124552e-01
9.10239559e-01
-2.78006159e-03
1.06977107e-03
-5.29152506e-03
-7.64066238e-04
-3.84269582e-03
-8.28286736e-04
9.69574000e-03
1.27933599e-01
-1.60935086e-02
-7.27651807e-02
-1.46627858e-02
4.00997957e-02
-6.88670690e-02
9.39544013e-02
-3.36474001e-02
-4.84633718e-01
1.91544169e-01
1.61802065e-02
3.20915073e-05
1.54284219e-04
-1.49546447e-03
4.24548288e-05
5.53294902e-05
2.68061911e-03
4.59870546e-04
-1.81778994e-03
-2.44403633e-04
-4.07383260e-03
5.28400065e-04
1.21557505e-02
7.68582373e-03
4.97465123e-02
1.34060143e-01
-1.69935649e-01
-2.85879877e-01
7.04764750e-01
-1.14375420e+00
6.15195468e-01
-3.54932068e-03
-1.85906928e-03
-3.49071719e-03
7.09535469e-04
9.97174126e-04
-1.61505451e-04
-4.99238705e-02
2.88632383e-02
2.24721520e-03
1.01754036e-01
1.08264037e-01
-6.34019112e-02
6.78518610e-02
7.52786476e-02
4.85003088e-02
3.88587698e-01
-2.87295392e-01
1.00769821e-01
1.50194551e-03
2.39239993e-04
-1.35125178e-03
6.29790807e-04
-4.87278768e-04
1.33440910e-03
3.72826031e-04
-2.37986732e-03
4.25127539e-04
-3.87222651e-03
2.34834803e-04
7.79569805e-03
2.36687269e-03
9.65533358e-03
-6.75173493e-02
7.66199467e-02
-7.85434700e-02
-4.95126862e-02
5.41989398e-02
1.41506310e+00
2.09667850e-03
-1.98185918e-03
7.70807587e-04
8.49652620e-04
-6.37176556e-06
5.28887424e-05
1.35085569e-03
-2.13966971e-04
-1.54534169e-04
-2.45412949e-03
-1.23587026e-02
3.80800982e-03
-3.88962161e-02
4.93774781e-03
-2.49046302e-04
1.29602847e-01
-1.02166410e-01
3.97135321e-02
-6.27206477e-05
-6.58887556e-05
-1.36990395e-04
3.94707249e-06
4.03928453e-05
7.25824230e-05
-1.32681198e-04
-2.20067606e-04
5.81847589e-05
1.40039749e-04
2.25193344e-04
1.20157358e-02
-1.57749636e-03
9.19676940e-02
-6.77498276e-02
-1.29370393e-01
1.29133120e-01
8.15450114e-01
-1.24193614e-01
-9.08817064e-01
-4.25042802e-03
-2.02510259e-03
-5.45862850e-04
-8.84366890e-03
-1.28444386e-03
5.13927359e-04
9.24319206e-03
5.92860344e-04
2.14413058e-03
9.97908925e-03
-1.83280095e-02
-5.82789078e-03
3.13968916e-02
1.04277290e-01
3.43539728e-02
-5.02433335e-02
-3.55863866e-02
1.85277161e-01
-1.69884726e-04
1.03403250e-04
-2.97153419e-04
1.04668403e-04
1.15970889e-04
-5.46551105e-04
7.14280033e-05
1.97049719e-04
-7.81180770e-05
-1.92430803e-03
2.22673063e-04
6.77435371e-03
1.48009120e-03
-2.25358531e-03
-2.03196601e-01
1.86693379e-01
-8.15989433e-02
-1.68200576e-01
6.32829835e-02
3.16674508e-01
2.05742975e-03
3.47948865e-04
1.60368291e-03
4.31723335e-04
-4.50185805e-04
1.89788243e-04
2.86211969e-03
5.34100492e-03
7.39902926e-04
1.39400699e-02
3.58210042e-02
-1.84092193e-03
-3.89511036e-02
-4.27688169e-02
-7.67441944e-03
2.96430906e-01
-2.69965154e-02
3.91286276e-02
-3.74746188e-05
5.97448885e-05
-1.31767692e-04
4.60456707e-05
4.43476481e-05
-1.19533951e-04
4.83522168e-05
-2.07908865e-04
1.34383280e-04
-5.83774009e-05
-3.96816471e-05
1.45191379e-03
1.39522628e-03
5.33209495e-03
-4.35461150e-02
8.30351932e-02
-5.09297928e-02
-1.27529306e-02
4.86950316e-01
1.97669609e+00
-1.35538813e-02
1.03711731e-02
5.82290677e-03
1.53595691e-04
1.00212991e-03
6.76238087e-04
-3.93177393e-03
6.00222146e-03
2.64603876e-03
-1.78688444e-02
5.61632867e-03
2.84326957e-03
1.13990831e-01
-2.22616457e-02
1.04590759e-02
-1.44381286e-02
-2.16746854e-01
-3.11399448e-02
-1.52071318e-04
7.09090361e-06
-4.48113453e-04
-3.74631871e-05
4.97858665e-04
-7.20765938e-04
2.12494182e-05
-9.08458138e-04
-1.91367067e-04
1.18081775e-03
9.92423215e-04
4.75035928e-02
1.55068914e-02
1.39483343e-01
1.62303460e-01
5.91614759e-03
-5.33814269e-02
-7.92386550e-01
-6.04094692e-01
-1.39866106e+00
1.52735395e-02
-1.04610295e-02
-3.33078963e-03
9.06303951e-04
-2.92089364e-03
-6.98954281e-04
-1.09501994e-02
-1.01385773e-02
-3.67782408e-04
-3.86222721e-02
-1.07504275e-01
-1.54498659e-02
-2.31383881e-03
4.36431900e-02
-3.07191546e-02
-6.77339799e-02
1.82843530e-01
4.23107807e-02
8.32096735e-04
1.26166835e-04
-2.70636268e-05
3.16208123e-05
-9.44360693e-04
1.50657907e-03
3.09354528e-04
-1.36321375e-03
3.80090975e-05
-1.83910373e-03
-2.81988548e-06
2.58873300e-03
1.67465368e-03
2.26730894e-03
-2.40065174e-02
2.30686247e-02
-9.71007565e-03
3.14242944e-02
3.74127635e-01
2.25705868e+00
-1.73714552e-02
-5.07625512e-04
6.39011438e-03
-5.49324703e-04
-9.76400252e-04
6.82601770e-04
-9.80470647e-03
-4.22085638e-03
4.04335261e-03
7.87846489e-03
-3.37254251e-03
-1.20474617e-03
4.46050238e-02
2.80405337e-02
-3.88811642e-02
-9.80733507e-02
2.36311158e-01
-8.09516030e-02
-3.98844623e-04
5.51023964e-05
-4.39907016e-04
-9.72743285e-05
2.81918794e-04
-8.44422941e-04
1.72257509e-04
-8.96494106e-04
-3.04215342e-04
1.09512521e-03
1.01926436e-03
4.79858286e-02
1.53762705e-02
1.17847822e-01
1.98710692e-01
4.49671996e-02
-2.10997080e-01
-9.04957126e-01
-7.34123850e-01
-2.52225684e+00
1.93661187e-02
-1.20662269e-03
-4.34095234e-03
2.28471813e-03
2.69561114e-03
-1.69911191e-03
4.25167497e-03
9.37310978e-03
-3.10647232e-03
7.54628493e-04
-5.34017944e-02
1.03351281e-02
-3.36687111e-02
-2.32817650e-01
1.27521536e-01
1.13039512e-02
-5.78772864e-02
1.24167806e-01
5.87333441e-04
-6.45518327e-05
-9.74856220e-05
2.79314637e-05
-1.13722834e-03
1.30787614e-03
-3.39757206e-04
-1.05697020e-03
-1.04799517e-04
-1.53844376e-03
-9.38799031e-04
-9.34358456e-03
3.78461162e-03
1.60163105e-01
-2.04327501e-02
-1.39494752e+00
-3.46848446e-05
2.29782755e-04
-4.84202812e-04
-4.42818267e-04
-5.99898463e-04
3.61168995e-04
2.31881480e-03
-5.95871893e-03
1.72543520e-02
1.27534428e-01
-2.40740021e-01
8.96924497e-01
2.17107957e-04
-4.22842324e-04
1.44352370e-05
-5.27586469e-05
-3.09319534e-04
-1.19826640e-04
8.34041751e-04
-7.31783764e-03
1.52792442e-02
9.60792869e-02
8.47094919e-01
-3.34085652e-01
-3.61859043e-05
2.60712126e-04
4.95037085e-04
-5.49351518e-04
-2.73476480e-04
1.17977538e-04
5.70933208e-04
-6.95869960e-03
-1.15288240e-01
-1.13513478e-01
-5.05439128e-01
-2.29368554e-01
-1.15178456e-03
-4.02831229e-04
-1.75182262e-03
-4.33368558e-03
-9.10660028e-04
-4.25526976e-03
5.20382448e-03
-7.92658929e-03
-7.17770345e-02
-2.51033104e-01
-1.27057343e-01
2.93281247e-01
-2.58830376e-05
1.66844548e-03
1.03455370e-04
-5.10538215e-04
3.55458153e-03
1.42739611e-04
2.29792938e-03
-1.09345222e-02
-1.19846470e-01
1.09584832e-01
3.86345871e-01
-1.32281259e-01
-4.12132550e-04
-6.48012946e-04
1.99585336e-03
-1.46407706e-03
-1.56041131e-03
4.22849153e-03
2.51797163e-03
-8.48781484e-03
-1.27812347e-01
-1.23071365e-01
-2.08238167e-02
1.72499439e-01
-1.21241448e-04
7.03138098e-04
2.00075119e-03
-8.07495285e-04
2.16519295e-03
4.91719047e-03
4.49562108e-03
-1.13352054e-02
-4.54608546e-03
7.75149063e-02
-2.27965348e-01
3.48728060e-01
-9.65606827e-04
-1.28466321e-03
-2.58594932e-06
-1.96218154e-03
-1.86056922e-03
-3.02713153e-05
5.92827818e-04
-8.92104210e-03
-1.19081243e-01
-2.78950075e-02
2.84358715e-01
-4.96571449e-01
-5.92925538e-04
1.04147349e-03
-1.71597420e-03
-2.34838690e-03
3.50651796e-03
-3.82655336e-03
4.51858823e-03
4.49588816e-03
4.18254683e-02
1.89119421e-01
7.50030203e-01
-1.16175489e+00
2.95920063e-04
-2.24180806e-04
6.86104528e-05
7.25650922e-04
-8.10747621e-04
2.39456655e-04
   *****

     End transition


 All requested transition properties have been computed


 Transition Properties  CPU 24.37 s  wall 2.88 s
 Total ccman2 time:   CPU 34168.08 s  wall 1240.72 s


 --------------------------------------------------------------

                    Orbital Energies (a.u.)
 --------------------------------------------------------------

 Alpha MOs
 -- Occupied --
-20.6106 -20.6099 -20.5751 -20.5697 -11.3597 -11.3560 -11.3420 -11.3403
-11.3095 -11.3093 -11.2844 -11.2667 -11.2450  -1.4418  -1.4284  -1.3926
 -1.3864  -1.1485  -1.0803  -1.0043  -0.9882  -0.9542  -0.9038  -0.8256
 -0.8039  -0.7488  -0.7280  -0.7024  -0.6874  -0.6589  -0.6534  -0.6452
 -0.6336  -0.6162  -0.6051  -0.5911  -0.5717  -0.5671  -0.5512  -0.5404
 -0.5203  -0.5124  -0.5017  -0.4870  -0.4498  -0.4331  -0.3900  -0.3427
 -- Virtual --
  0.0003   0.0012   0.0013   0.0019   0.0020   0.0022   0.0025   0.0037
  0.0040   0.0041   0.0054   0.0056   0.0057   0.0062   0.0067   0.0074
  0.0081   0.0091   0.0093   0.0100   0.0111   0.0117   0.0121   0.0130
  0.0134   0.0140   0.0148   0.0159   0.0168   0.0171   0.0174   0.0187
  0.0190   0.0194   0.0202   0.0208   0.0214   0.0221   0.0231   0.0232
  0.0234   0.0240   0.0242   0.0245   0.0250   0.0253   0.0269   0.0273
  0.0289   0.0296   0.0301   0.0319   0.0330   0.0360   0.0374   0.0379
  0.0391   0.0396   0.0404   0.0411   0.0428   0.0436   0.0443   0.0454
  0.0458   0.0460   0.0471   0.0484   0.0489   0.0499   0.0507   0.0511
  0.0519   0.0532   0.0538   0.0552   0.0577   0.0585   0.0596   0.0607
  0.0612   0.0621   0.0644   0.0652   0.0670   0.0686   0.0692   0.0703
  0.0711   0.0714   0.0748   0.0769   0.0796   0.0817   0.0820   0.0838
  0.0844   0.0864   0.0869   0.0884   0.0906   0.0925   0.0953   0.0962
  0.0973   0.1003   0.1022   0.1032   0.1047   0.1063   0.1107   0.1115
  0.1144   0.1173   0.1183   0.1196   0.1201   0.1239   0.1248   0.1255
  0.1262   0.1269   0.1281   0.1306   0.1323   0.1344   0.1387   0.1390
  0.1412   0.1423   0.1433   0.1456   0.1485   0.1506   0.1524   0.1527
  0.1552   0.1579   0.1609   0.1620   0.1645   0.1691   0.1716   0.1768
  0.1791   0.1806   0.1839   0.1878   0.1888   0.1903   0.1918   0.1982
  0.2024   0.2045   0.2067   0.2083   0.2105   0.2154   0.2170   0.2175
  0.2265   0.2303   0.2314   0.2322   0.2343   0.2395   0.2413   0.2434
  0.2489   0.2522   0.2571   0.2628   0.2682   0.2720   0.2726   0.2756
  0.2773   0.2795   0.2826   0.2866   0.2883   0.2919   0.2951   0.3013
  0.3040   0.3058   0.3078   0.3152   0.3242   0.3262   0.3278   0.3330
  0.3402   0.3467   0.3482   0.3497   0.3613   0.3671   0.3742   0.3782
  0.3827   0.3836   0.3887   0.3926   0.3942   0.4021   0.4113   0.4159
  0.4178   0.4259   0.4324   0.4413   0.4432   0.4452   0.4460   0.4557
  0.4596   0.4640   0.4693   0.4740   0.4816   0.4835   0.4860   0.4900
  0.4977   0.5008   0.5060   0.5079   0.5179   0.5244   0.5270   0.5343
  0.5419   0.5475   0.5506   0.5558   0.5590   0.5673   0.5705   0.5752
  0.5792   0.5877   0.5950   0.5979   0.6025   0.6095   0.6134   0.6175
  0.6225   0.6376   0.6457   0.6555   0.6597   0.6712   0.6778   0.6782
  0.6858   0.6920   0.6952   0.6975   0.7096   0.7121   0.7140   0.7215
  0.7252   0.7284   0.7373   0.7417   0.7503   0.7595   0.7639   0.7666
  0.7713   0.7764   0.7858   0.7923   0.7994   0.8104   0.8158   0.8249
  0.8262   0.8324   0.8441   0.8458   0.8519   0.8573   0.8628   0.8701
  0.8835   0.8911   0.9074   0.9088   0.9150   0.9234   0.9297   0.9397
  0.9435   0.9503   0.9584   0.9655   0.9730   0.9770   0.9979   1.0082
  1.0137   1.0289   1.0352   1.0395   1.0531   1.0715   1.0775   1.0864
  1.0962   1.1008   1.1064   1.1228   1.1313   1.1453   1.1566   1.1689
  1.1833   1.1968   1.2000   1.2117   1.2214   1.2320   1.2367   1.2644
  1.2830   1.2968   1.3199   1.3431   1.3454   1.3575   1.3630   1.3795
  1.3916   1.4042   1.4370   1.4389   1.4536   1.4696   1.4755   1.4857
  1.4985   1.5101   1.5179   1.5339   1.5530   1.5589   1.5771   1.5877
  1.5988   1.6026   1.6073   1.6191   1.6312   1.6436   1.6696   1.6767
  1.6854   1.7061   1.7085   1.7166   1.7272   1.7368   1.7423   1.7478
  1.7614   1.7671   1.7834   1.8008   1.8282   1.8401   1.8476   1.8606
  1.8744   1.8848   1.8930   1.9082   1.9144   1.9211   1.9224   1.9379
  1.9517   1.9581   1.9722   1.9862   1.9961   1.9975   2.0107   2.0149
  2.0266   2.0444   2.0534   2.0746   2.0843   2.1152   2.1427   2.1478
  2.1606   2.1651   2.1704   2.1819   2.1873   2.1988   2.2059   2.2172
  2.2251   2.2356   2.2382   2.2463   2.2747   2.2901   2.3035   2.3124
  2.3268   2.3354   2.3460   2.3573   2.3803   2.3962   2.4080   2.4322
  2.4465   2.4536   2.4664   2.4749   2.4870   2.5069   2.5238   2.5298
  2.5442   2.5732   2.5894   2.6157   2.6393   2.6503   2.6540   2.6842
  2.6981   2.7393   2.7559   2.7800   2.7817   2.8106   2.8261   2.8375
  2.9115   2.9502   2.9837   2.9849   3.0099   3.0167   3.0315   3.0540
  3.0845   3.1445   3.1593   3.2049   3.2888   3.3495   3.3955   3.4249
  3.4701   3.5393   3.5641   3.6305   3.6611   3.7756   3.7847   3.8151
  3.8168   3.8352   3.8556   3.8613   3.8831   3.9258   3.9372   3.9980
  4.0098   4.0295   4.0557   4.0802   4.1052   4.1775   4.1969   4.2776
  4.3133   4.3847   4.8528
 --------------------------------------------------------------

          Ground-State Mulliken Net Atomic Charges

     Atom                 Charge (a.u.)
  ----------------------------------------
      1 C                     1.427654
      2 C                    -0.804941
      3 C                     0.778645
      4 C                     2.193717
      5 C                    -1.252098
      6 C                     1.886688
      7 O                    -1.046347
      8 C                     0.643993
      9 O                    -1.059412
     10 O                    -1.394129
     11 C                     1.116631
     12 O                    -1.360448
     13 C                     1.073371
     14 H                    -0.018300
     15 H                    -0.069597
     16 H                    -0.024696
     17 H                    -0.173059
     18 H                    -0.639689
     19 H                     0.060094
     20 H                    -0.014271
     21 H                    -0.597057
     22 H                     0.067810
     23 H                    -0.794560
  ----------------------------------------
  Sum of atomic charges =     0.000000

 -----------------------------------------------------------------
                    Cartesian Multipole Moments
 -----------------------------------------------------------------
    Charge (ESU x 10^10)
                 0.0000
    Dipole Moment (Debye)
         X       2.0691      Y      -1.2958      Z      -0.3883
       Tot       2.4721
    Quadrupole Moments (Debye-Ang)
        XX     -56.6435     XY     -10.5381     YY     -94.6742
        XZ      -1.1736     YZ       0.7879     ZZ     -75.7747
    Octopole Moments (Debye-Ang^2)
       XXX      32.7614    XXY       2.9117    XYY      17.3938
       YYY     -31.3227    XXZ      -1.1804    XYZ       0.5695
       YYZ      -0.1948    XZZ       5.6111    YZZ      -3.1565
       ZZZ       0.0727
    Hexadecapole Moments (Debye-Ang^3)
      XXXX   -1758.0542   XXXY      -5.7375   XXYY    -492.6673
      XYYY     -67.2607   YYYY   -1319.2548   XXXZ       0.9540
      XXYZ      -2.2264   XYYZ      -3.5580   YYYZ       8.7611
      XXZZ    -344.1256   XYZZ       7.7235   YYZZ    -212.5130
      XZZZ      -0.2076   YZZZ      -0.5804   ZZZZ    -108.4684
 -----------------------------------------------------------------
 Total job time:  1701.97s(wall), 43540.55s(cpu) 
 Wed May  7 18:26:04 2025

        *************************************************************
        *                                                           *
        *  Thank you very much for using Q-Chem.  Have a nice day.  *
        *                                                           *
        *************************************************************


