                  Welcome to Q-Chem
     A Quantum Leap Into The Future Of Chemistry


 Q-Chem 6.2 (devel), Q-Chem, Inc., Pleasanton, CA (2024)

 E. Epifanovsky,  A. T. B. Gilbert,  Xintian Feng,  Joonho Lee,  Yuezhi Mao,  
 N. Mardirossian,  P. Pokhilko,  A. White,  M. Wormit,  M. P. Coons,  
 A. L. Dempwolff,  Zhengting Gan,  D. Hait,  P. R. Horn,  L. D. Jacobson,  
 I. Kaliman,  J. Kussmann,  A. W. Lange,  Ka Un Lao,  D. S. Levine,  Jie Liu,  
 S. C. McKenzie,  A. F. Morrison,  K. D. Nanda,  F. Plasser,  D. R. Rehn,  
 M. L. Vidal,  Zhi-Qiang You,  Ying Zhu,  Huseyin Aksu,  B. Alam,  
 B. Albrecht,  A. Aldossary,  E. Alguire,  J. H. Andersen,  
 J. E. Arias-Martinez,  V. Athavale,  D. Barton,  K. Begam,  A. Behn,  
 N. Bellonzi,  Y. A. Bernard,  E. J. Berquist,  H. Burton,  A. Carreras,  
 K. Carter-Fenk,  Mathew Chow,  Romit Chakraborty,  Chandrima Chakravarty,  
 Junhan Chen,  A. D. Chien,  K. D. Closser,  V. Cofer-Shabica,  L. Cunha,  
 S. Dasgupta,  Jia Deng,  Joseph Dickinson,  M. de Wergifosse,  
 M. Diedenhofen,  Hainam Do,  Wenjie Dou,  S. Ehlert,  Po-Tung Fang,  
 S. Fatehi,  Qingguo Feng,  Jonathan Fetherolf,  T. Friedhoff,  
 Thomas Froitzheim,  Sarai Folkestad,  B. Ganoe,  J. Gayvert,  Qinghui Ge,  
 G. Gidofalvi,  M. Gimferrer,  M. Goldey,  Montgomery Gray,  J. Gomes,  
 C. Gonzalez-Espinoza,  S. Gulania,  A. Gunina,  J. A. Gyamfi,  
 M. W. D. Hanson-Heine,  P. H. P. Harbach,  A. W. Hauser,  M. F. Herbst,  
 M. Hernandez Vera,  M. Hodecker,  Z. C. Holden,  S. Houck,  Xunkun Huang,  
 Kerwin Hui,  B. C. Huynh,  K. Ikeda,  M. Ivanov,  Nayanthara K. Jayadev,  
 Hyunjun Ji,  Zuxin Jin,  Hanjie Jiang,  Subrata Jana,  B. Kaduk,  
 S. Kaehler,  R. Kang,  K. Khistyaev,  Jaehoon Kim,  Yongbin Kim,  
 P. Klunzinger,  Z. Koczor-Benda,  Joong Hoon Koh,  D. Kosenkov,  
 Saikiran Kotaru,  L. Koulias,  T. Kowalczyk,  C. M. Krauter,  K. Kue,  
 A. Kunitsa,  T. Kus,  A. Landau,  K. V. Lawler,  D. Lefrancois,  S. Lehtola,  
 Rain Li,  Shaozhi Li,  Tao E. Li,  Yi-Pei Li,  Jiashu Liang,  M. Liebenthal,  
 Hung-Hsuan Lin,  You-Sheng Lin,  Fenglai Liu,  Kuan-Yu Liu,  Xiao Liu,  
 M. Loipersberger,  A. Luenser,  C. Malbon,  Aniket Mandal,  Manisha,  
 A. Manjanath,  P. Manohar,  E. Mansoor,  S. F. Manzer,  Shan-Ping Mao,  
 A. V. Marenich,  T. Markovich,  S. Mason,  F. Matz,  S. A. Maurer,  
 Samuel May,  Alexandra McIsaac,  P. F. McLaughlin,  M. F. S. J. Menger,  
 J.-M. Mewes,  S. A. Mewes,  P. Morgante,  Mohammad Mostafanejad,  
 Madhubani Mukherjee,  J. W. Mullinax,  Quyen Nguyen,  Avik Kumar Ojha,  
 K. J. Oosterbaan,  Eno Paenurk,  Xiaoliang Pan,  G. Paran,  V. Parravicini,  
 Alexander C. Paul,  Suranjan K. Paul,  F. Pavosevic,  Zheng Pei,  S. Prager,  
 E. I. Proynov,  E. Ramos,  B. Rana,  A. E. Rask,  A. Rettig,  R. M. Richard,  
 F. Rob,  E. Rossomme,  T. Scheele,  M. Scheurer,  M. Schneider,  
 P. E. Schneider,  Tim K. Schramm,  N. Sergueev,  S. M. Sharada,  
 Hengyuan Shen,  W. Skomorowski,  D. W. Small,  C. J. Stein,  
 Alistair J. Sterling,  Yingli Su,  Yu-Chuan Su,  E. J. Sundstrom,  
 J. Talbot,  Zhen Tao,  J. Thirman,  Hung-Yi Tsai,  T. Tsuchimochi,  
 N. M. Tubman,  C. Utku,  S. P. Veccham,  O. Vydrov,  Rahel Weiss,  
 J. Wenzel,  Jonathan Wong,  J. Witte,  H. Wu,  Yanze Wu,  A. Yamada,  
 Chou-Hsun Yang,  Kun Yao,  S. Yeganeh,  S. R. Yost,  Qi Yu,  A. Zech,  
 F. Zeller,  Chongxiao Zhao,  Igor Ying Zhang,  Xing Zhang,  Yu Zhang,  
 D. Zuev,  A. Aspuru-Guzik,  A. T. Bell,  N. A. Besley,  K. B. Bravaya,  
 B. R. Brooks,  D. Casanova,  Jeng-Da Chai,  Hsing-Ta Chen,  S. Coriani,  
 C. J. Cramer,  A. E. DePrince, III,  R. A. DiStasio Jr.,  A. Dreuw,  
 B. D. Dunietz,  T. R. Furlani,  W. A. Goddard III,  S. Grimme,  
 S. Hammes-Schiffer,  T. Head-Gordon,  W. J. Hehre,  Chao-Ping Hsu,  
 T.-C. Jagau,  Yousung Jung,  A. Klamt,  Jing Kong,  D. S. Lambrecht,  
 Xiangyuan Li,  WanZhen Liang,  N. J. Mayhall,  C. W. McCurdy,  J. B. Neaton,  
 T. Neudecker,  C. Ochsenfeld,  J. A. Parkhill,  R. Peverati,  
 V. A. Rassolov,  Haisheng Ren,  Yihan Shao,  L. V. Slipchenko,  
 R. P. Steele,  J. E. Subotnik,  A. J. W. Thom,  A. Tkatchenko,  
 D. G. Truhlar,  T. Van Voorhis,  Fan Wang,  T. A. Wesolowski,  K. B. Whaley,  
 H. L. Woodcock III,  P. M. Zimmerman,  S. Faraji,  P. M. W. Gill,  
 M. Head-Gordon,  J. M. Herbert,  A. I. Krylov

 Contributors to earlier versions of Q-Chem not listed above: 
 R. D. Adamson,  B. Austin,  R. Baer,  J. Baker,  G. J. O. Beran,  
 K. Brandhorst,  S. T. Brown,  E. F. C. Byrd,  Arup K. Chakraborty,  
 G. K. L. Chan,  Chun-Min Chang,  Yunqing Chen,  C.-L. Cheng,  
 Siu Hung Chien,  D. M. Chipman,  D. L. Crittenden,  H. Dachsel,  
 R. J. Doerksen,  A. D. Dutoi,  R. G. Edgar,  J. Fosso-Tande,  
 L. Fusti-Molnar,  D. Ghosh,  A. Ghysels,  A. Golubeva-Zadorozhnaya,  
 J. Gonthier,  M. S. Gordon,  S. R. Gwaltney,  G. Hawkins,  J. E. Herr,  
 A. Heyden,  S. Hirata,  E. G. Hohenstein,  G. Kedziora,  F. J. Keil,  
 C. Kelley,  Jihan Kim,  R. A. King,  R. Z. Khaliullin,  P. P. Korambath,  
 W. Kurlancheek,  A. Laurent,  A. M. Lee,  M. S. Lee,  S. V. Levchenko,  
 Ching Yeh Lin,  D. Liotard,  E. Livshits,  R. C. Lochan,  I. Lotan,  
 L. A. Martinez-Martinez,  P. E. Maslen,  N. Nair,  D. P. O'Neill,  
 D. Neuhauser,  E. Neuscamman,  C. M. Oana,  R. Olivares-Amaya,  R. Olson,  
 T. M. Perrine,  B. Peters,  P. A. Pieniazek,  A. Prociuk,  Y. M. Rhee,  
 J. Ritchie,  M. A. Rohrdanz,  E. Rosta,  N. J. Russ,  H. F. Schaefer III,  
 M. W. Schmidt,  N. E. Schultz,  S. Sharma,  N. Shenvi,  C. D. Sherrill,  
 A. C. Simmonett,  A. Sodt,  T. Stein,  D. Stuck,  K. S. Thanthiriwatte,  
 V. Vanovschi,  L. Vogt,  Tao Wang,  A. Warshel,  M. A. Watson,  
 C. F. Williams,  Q. Wu,  X. Xu,  Jun Yang,  W. Zhang,  Yan Zhao

   Please cite Q-Chem as follows:
  "Software for the frontiers of quantum chemistry:
   An overview of developments in the Q-Chem 5 package"
   J. Chem. Phys. 155, 084801 (2021)
   https://doi.org/10.1063/5.0055522 (open access)

 Q-Chem 6.2.1 for Intel X86 EM64T Linux

 Parts of Q-Chem use Armadillo 9.900.5 (Nocturnal Misbehaviour).
 http://arma.sourceforge.net/

 Q-Chem begins on Fri May  9 14:36:52 2025  

 Host: node28
0

     Scratch files written to /temp0/mauro/qchem1797140//
 Processing $rem in /home/mauro/qchem-dyson-EA-NoL//config/preferences:
 Processing $rem in /home/mauro/.qchemrc:

 Checking the input file for inconsistencies... 	...done.

--------------------------------------------------------------
User input:
--------------------------------------------------------------
$molecule
0 1
C 0.000000 0.000000 0.000000
C 1.489545 -0.000000 0.044623
C 2.211930 1.307078 -0.000000
C 1.507234 2.452540 0.002684
C 0.029187 2.475481 0.000000
C -0.685911 1.183503 0.029472
O 2.126668 -1.049234 0.146738
C 3.708527 1.238353 -0.019921
O -0.582574 3.543535 -0.063246
O -2.042772 1.229556 0.124924
C -2.750446 1.002360 -1.113299
O -0.720386 -1.141299 0.031403
C -0.175160 -2.409138 -0.412331
H 4.056112 0.679635 -0.896106
H 4.139866 2.241850 -0.039243
H 4.080520 0.698506 0.857377
H 0.465822 -2.844035 0.353957
H -1.057795 -3.028499 -0.580829
H 0.387770 -2.288167 -1.340716
H -2.506780 1.793482 -1.830707
H -2.499752 0.018609 -1.524746
H -3.809771 1.042989 -0.858303
H 1.988825 3.427291 -0.008013
Ne 0.273696 -9.800167 -17.121257
Ne 0.273696 11.229077 -17.121257
Ne 0.273696 -9.800167 16.904775
Ne 0.273696 11.229077 16.904775
Ne -10.240926 -16.298561 -0.108241
Ne 10.788318 -16.298561 -0.108241
Ne -10.240926 17.727471 -0.108241
Ne 10.788318 17.727471 -0.108241
Ne -16.739320 0.714455 -10.622863
Ne 17.286712 0.714455 -10.622863
Ne -16.739320 0.714455 10.406381
Ne 17.286712 0.714455 10.406381
$end

$rem
   CCMAN2                       1
   MEM_TOTAL                    500000
   CC_MEMORY			495000
   MEM_STATIC                   2000
   METHOD                       cc2
   BASIS                        gen
   PURECART                     11
   AUX_BASIS                    rimp2-aug-cc-pVDZ
   N_FROZEN_CORE                fc
   EA_STATES                    [2]
   SCF_CONVERGENCE              10
   MAX_SCF_CYCLES               200
   CC_CONVERGENCE               8
   EOM_DAVIDSON_CONVERGENCE     8
   CC_TRANS_PROP		TRUE
   CC_DO_DYSON			TRUE
   CC_EOM_PROP			TRUE
   !PRINT_ORBITALS               TRUE
$end

$basis
H     0
S   4   1.00
      1.301000D+01           1.968500D-02
      1.962000D+00           1.379770D-01
      4.446000D-01           4.781480D-01
      1.220000D-01           5.012400D-01
S   1   1.00
      1.220000D-01           1.000000D+00
S   1   1.00
      0.0297400              1.0000000
S   1   1.00
      0.01487              1.0000000
S   1   1.00
      0.007435              1.0000000
S   1   1.00
      0.0037175              1.0000000
P   1   1.00
      7.270000D-01           1.0000000
P   1   1.00
      0.1410000              1.0000000
****
C     0
S   9   1.00
      6.665000D+03           6.920000D-04
      1.000000D+03           5.329000D-03
      2.280000D+02           2.707700D-02
      6.471000D+01           1.017180D-01
      2.106000D+01           2.747400D-01
      7.495000D+00           4.485640D-01
      2.797000D+00           2.850740D-01
      5.215000D-01           1.520400D-02
      1.596000D-01          -3.191000D-03
S   9   1.00
      6.665000D+03          -1.460000D-04
      1.000000D+03          -1.154000D-03
      2.280000D+02          -5.725000D-03
      6.471000D+01          -2.331200D-02
      2.106000D+01          -6.395500D-02
      7.495000D+00          -1.499810D-01
      2.797000D+00          -1.272620D-01
      5.215000D-01           5.445290D-01
      1.596000D-01           5.804960D-01
S   1   1.00
      1.596000D-01           1.000000D+00
S   1   1.00
      0.0469000              1.0000000
S   1   1.00
      0.02345              1.0000000
S   1   1.00
      0.011725              1.0000000
S   1   1.00
      0.0058625              1.0000000
S   1   1.00
      0.00293125              1.0000000
S   1   1.00
      0.00146562              1.0000000
S   1   1.00
      0.00073281              1.0000000
P   4   1.00
      9.439000D+00           3.810900D-02
      2.002000D+00           2.094800D-01
      5.456000D-01           5.085570D-01
      1.517000D-01           4.688420D-01
P   1   1.00
      1.517000D-01           1.000000D+00
P   1   1.00
      0.0404100              1.0000000
P   1   1.00
      0.020205              1.0000000
P   1   1.00
      0.0101025              1.0000000
P   1   1.00
      0.00505125              1.0000000
D   1   1.00
      5.500000D-01           1.0000000
D   1   1.00
      0.1510000              1.0000000
****
N     0
S   9   1.00
      9.046000D+03           7.000000D-04
      1.357000D+03           5.389000D-03
      3.093000D+02           2.740600D-02
      8.773000D+01           1.032070D-01
      2.856000D+01           2.787230D-01
      1.021000D+01           4.485400D-01
      3.838000D+00           2.782380D-01
      7.466000D-01           1.544000D-02
      2.248000D-01          -2.864000D-03
S   9   1.00
      9.046000D+03          -1.530000D-04
      1.357000D+03          -1.208000D-03
      3.093000D+02          -5.992000D-03
      8.773000D+01          -2.454400D-02
      2.856000D+01          -6.745900D-02
      1.021000D+01          -1.580780D-01
      3.838000D+00          -1.218310D-01
      7.466000D-01           5.490030D-01
      2.248000D-01           5.788150D-01
S   1   1.00
      2.248000D-01           1.000000D+00
S   1   1.00
      0.0612400              1.0000000
S   1   1.00
      0.03062              1.0000000
S   1   1.00
      0.01531              1.0000000
S   1   1.00
      0.007655              1.0000000
S   1   1.00
      0.0038275              1.0000000
S   1   1.00
      0.00191375              1.0000000
S   1   1.00
      0.000956875              1.0000000
P   4   1.00
      1.355000D+01           3.991900D-02
      2.917000D+00           2.171690D-01
      7.973000D-01           5.103190D-01
      2.185000D-01           4.622140D-01
P   1   1.00
      2.185000D-01           1.000000D+00
P   1   1.00
      0.0561100              1.0000000
P   1   1.00
      0.028055              1.0000000
P   1   1.00
      0.0140275              1.0000000
P   1   1.00
      0.00701375              1.0000000
D   1   1.00
      8.170000D-01           1.0000000
D   1   1.00
      0.2300000              1.0000000
****
O     0
S   9   1.00
      1.172000D+04           7.100000D-04
      1.759000D+03           5.470000D-03
      4.008000D+02           2.783700D-02
      1.137000D+02           1.048000D-01
      3.703000D+01           2.830620D-01
      1.327000D+01           4.487190D-01
      5.025000D+00           2.709520D-01
      1.013000D+00           1.545800D-02
      3.023000D-01          -2.585000D-03
S   9   1.00
      1.172000D+04          -1.600000D-04
      1.759000D+03          -1.263000D-03
      4.008000D+02          -6.267000D-03
      1.137000D+02          -2.571600D-02
      3.703000D+01          -7.092400D-02
      1.327000D+01          -1.654110D-01
      5.025000D+00          -1.169550D-01
      1.013000D+00           5.573680D-01
      3.023000D-01           5.727590D-01
S   1   1.00
      3.023000D-01           1.000000D+00
S   1   1.00
      0.0789600              1.0000000
S   1   1.00
      0.03948              1.0000000
S   1   1.00
      0.01974              1.0000000
S   1   1.00
      0.00987              1.0000000
S   1   1.00
      0.004935              1.0000000
S   1   1.00
      0.0024675              1.0000000
S   1   1.00
      0.00123375              1.0000000
P   4   1.00
      1.770000D+01           4.301800D-02
      3.854000D+00           2.289130D-01
      1.046000D+00           5.087280D-01
      2.753000D-01           4.605310D-01
P   1   1.00
      2.753000D-01           1.000000D+00
P   1   1.00
      0.0685600              1.0000000
P   1   1.00
      0.03428              1.0000000
P   1   1.00
      0.01714              1.0000000
P   1   1.00
      0.00857              1.0000000
D   1   1.00
      1.185000D+00           1.0000000
D   1   1.00
      0.3320000              1.0000000
****
S     0
S   12   1.00
      1.108000D+05           2.476350D-04
      1.661000D+04           1.920260D-03
      3.781000D+03           9.961920D-03
      1.071000D+03           4.029750D-02
      3.498000D+02           1.286040D-01
      1.263000D+02           3.034800D-01
      4.926000D+01           4.214320D-01
      2.016000D+01           2.307810D-01
      5.720000D+00           1.789710D-02
      2.182000D+00          -2.975160D-03
      4.327000D-01           8.495220D-04
      1.570000D-01          -3.679360D-04
S   12   1.00
      1.108000D+05          -6.870390D-05
      1.661000D+04          -5.276810D-04
      3.781000D+03          -2.796710D-03
      1.071000D+03          -1.126510D-02
      3.498000D+02          -3.888340D-02
      1.263000D+02          -9.950250D-02
      4.926000D+01          -1.997400D-01
      2.016000D+01          -1.233600D-01
      5.720000D+00           5.131940D-01
      2.182000D+00           6.071200D-01
      4.327000D-01           3.967530D-02
      1.570000D-01          -9.468640D-03
S   12   1.00
      1.108000D+05           1.990770D-05
      1.661000D+04           1.534830D-04
      3.781000D+03           8.095030D-04
      1.071000D+03           3.289740D-03
      3.498000D+02           1.129670D-02
      1.263000D+02           2.963850D-02
      4.926000D+01           5.998510D-02
      2.016000D+01           4.132480D-02
      5.720000D+00          -2.074740D-01
      2.182000D+00          -3.928890D-01
      4.327000D-01           6.328400D-01
      1.570000D-01           5.569240D-01
S   1   1.00
      1.570000D-01           1.000000D+00
S   1   1.00
      0.0507000              1.0000000
S   1   1.00
      0.02535              1.0000000
S   1   1.00
      0.012675              1.0000000
S   1   1.00
      0.0063375              1.0000000
S   1   1.00
      0.00316875              1.0000000
S   1   1.00
      0.00158438              1.0000000
S   1   1.00
      0.00079219              1.0000000
P   8   1.00
      3.997000D+02           4.475410D-03
      9.419000D+01           3.417080D-02
      2.975000D+01           1.442500D-01
      1.077000D+01           3.539280D-01
      4.119000D+00           4.590850D-01
      1.625000D+00           2.063830D-01
      4.726000D-01           1.021410D-02
      1.407000D-01          -6.031220D-05
P   8   1.00
      3.997000D+02          -1.162510D-03
      9.419000D+01          -8.656640D-03
      2.975000D+01          -3.908860D-02
      1.077000D+01          -9.346250D-02
      4.119000D+00          -1.479940D-01
      1.625000D+00           3.019040D-02
      4.726000D-01           5.615730D-01
      1.407000D-01           5.347760D-01
P   1   1.00
      1.407000D-01           1.000000D+00
P   1   1.00
      0.0399000              1.0000000
P   1   1.00
      0.01995              1.0000000
P   1   1.00
      0.009975              1.0000000
P   1   1.00
      0.0049875              1.0000000
D   1   1.00
      4.790000D-01           1.0000000
D   1   1.00
      0.1520000              1.0000000
****
Ne     0
S   9   1.00
      1.788000D+04           7.380000D-04
      2.683000D+03           5.677000D-03
      6.115000D+02           2.888300D-02
      1.735000D+02           1.085400D-01
      5.664000D+01           2.909070D-01
      2.042000D+01           4.483240D-01
      7.810000D+00           2.580260D-01
      1.653000D+00           1.506300D-02
      4.869000D-01          -2.100000D-03
S   9   1.00
      1.788000D+04          -1.720000D-04
      2.683000D+03          -1.357000D-03
      6.115000D+02          -6.737000D-03
      1.735000D+02          -2.766300D-02
      5.664000D+01          -7.620800D-02
      2.042000D+01          -1.752270D-01
      7.810000D+00          -1.070380D-01
      1.653000D+00           5.670500D-01
      4.869000D-01           5.652160D-01
S   1   1.00
      4.869000D-01           1.000000D+00
S   1   1.00
      0.1230000              1.0000000
P   4   1.00
      2.839000D+01           4.608700D-02
      6.270000D+00           2.401810D-01
      1.695000D+00           5.087440D-01
      4.317000D-01           4.556600D-01
P   1   1.00
      4.317000D-01           1.000000D+00
P   1   1.00
      0.1064000              1.0000000
D   1   1.00
      2.202000D+00           1.0000000
D   1   1.00
      0.6310000              1.0000000
****
$end
--------------------------------------------------------------
 ----------------------------------------------------------------
             Standard Nuclear Orientation (Angstroms)
    I     Atom           X                Y                Z
 ----------------------------------------------------------------
    1      C       0.2312098792    -0.7104111385    -0.1642034765
    2      C      -1.2530915318    -0.6413695005    -0.0509864611
    3      C      -1.9030000696     0.6954759979     0.0998353032
    4      C      -1.1480608421     1.8073049781     0.0489439357
    5      C       0.3215383643     1.7628662515    -0.1042219863
    6      C       0.9665209021     0.4410077147    -0.2388638656
    7      O      -1.9472302097    -1.6572563551    -0.1092150754
    8      C      -3.3908683915     0.6944089973     0.2763835131
    9      O       0.9873255435     2.7997861628    -0.0815183724
   10      O       2.3065901961     0.4279045467    -0.4762376862
   11      C       3.1281129711     0.1342409767     0.6746223176
   12      O       0.8885061820    -1.8819924125    -0.2978613747
   13      C       0.3322075750    -3.1356000925     0.1718051327
   14      H      -3.6714294945     0.1278370743     1.1713488830
   15      H      -3.7689466991     1.7155665760     0.3642862686
   16      H      -3.8781661397     0.1967654157    -0.5688129887
   17      H      -0.4056199313    -3.5193010346    -0.5321655924
   18      H       1.1967394930    -3.7989557665     0.2317048823
   19      H      -0.1240441381    -3.0151094619     1.1570661429
   20      H       2.9992365781     0.9152878231     1.4317736076
   21      H       2.8747031009    -0.8481876616     1.0875624511
   22      H       4.1556774425     0.1337195762     0.3099935797
   23      H      -1.5783444951     2.8022856374     0.1329278318
   24      Ne      1.2777046083   -10.9623209831    16.6601484370
   25      Ne      2.2913405275    10.0369183660    17.1434622028
   26      Ne     -2.2811530700   -10.0120015130   -17.1659107274
   27      Ne     -1.2675171508    10.9872378360   -16.6825969616
   28      Ne      9.6297071541   -17.4548472376    -1.5145666944
   29      Ne    -11.2596170877   -16.4977193637     0.7101000592
   30      Ne     11.2698045452    16.5226362167    -0.7325485837
   31      Ne     -9.6195196966    17.4797640906     1.4921181698
   32      Ne     18.0046597536    -1.0555391620     8.6418094997
   33      Ne    -15.7949773189     0.4931262901    12.2413959682
   34      Ne     15.8051647764    -0.4682094371   -12.2638444928
   35      Ne    -17.9944722962     1.0804560150    -8.6642580242
 ----------------------------------------------------------------
 Molecular Point Group                 C1    NOp =  1
 Largest Abelian Subgroup              C1    NOp =  1
 Nuclear Repulsion Energy =        1240.63248304 hartrees
 There are      108 alpha and      108 beta electrons
 Requested basis set is non-standard
 There are 422 shells and 890 basis functions
 Total memory of 500000 MB is distributed as follows: 
   MEM_STATIC is set to 2000 MB
   QALLOC/CCMAN JOB total memory use is  498000 MB
 Warning: actual memory use might exceed 500000 MB

 Total QAlloc Memory Limit 500000 MB
 Mega-Array Size      1956 MB
 MEM_STATIC part      2000 MB

 Requested basis set is rimp2-aug-cc-pVDZ
 There are 640 shells and 2030 basis functions
 A cutoff of  1.0D-14 yielded  63477 shell pairs
 There are    243049 function pairs (    264437 Cartesian)
 Smallest overlap matrix eigenvalue = 2.71E-11
 Linear dependence detected in AO basis
 Tighter screening thresholds may be required for diffuse basis sets
 Use S2THRESH > 14 and THRESH = 14 in case of SCF convergence issues
 Number of orthogonalized atomic orbitals = 816
 Maximum deviation from orthogonality = 9.306E-09

 Scale SEOQF with 1.000000e-03/1.000000e-03/1.000000e-03

 Standard Electronic Orientation quadrupole field applied
 Nucleus-field energy     =     0.0000000003 hartrees
 ================ Generating on-the-fly SAD Guess ================
 Attempting to make child job directory: /temp0/mauro/qchem1797140//Frg1/
 Attempting to make child job directory: /temp0/mauro/qchem1797140//Frg2/
 Attempting to make child job directory: /temp0/mauro/qchem1797140//Frg3/
 Attempting to make child job directory: /temp0/mauro/qchem1797140//Frg4/
 Creating input file /temp0/mauro/qchem1797140/Frg1.input
 using default PutDataFrgm: nothing
 calling putenv with: QCSCRATCH=/temp0/mauro/qchem1797140/ 
 Spawning Job For Fragment 0
 Done Job For Fragment 0
 calling putenv with: QCSCRATCH=/temp0/mauro 
 calling putenv with: QCTHREADS=16 
 Creating input file /temp0/mauro/qchem1797140/Frg2.input
 using default PutDataFrgm: nothing
 calling putenv with: QCSCRATCH=/temp0/mauro/qchem1797140/ 
 Spawning Job For Fragment 1
 Done Job For Fragment 1
 calling putenv with: QCSCRATCH=/temp0/mauro 
 calling putenv with: QCTHREADS=16 
 Creating input file /temp0/mauro/qchem1797140/Frg3.input
 using default PutDataFrgm: nothing
 calling putenv with: QCSCRATCH=/temp0/mauro/qchem1797140/ 
 Spawning Job For Fragment 2
 Done Job For Fragment 2
 calling putenv with: QCSCRATCH=/temp0/mauro 
 calling putenv with: QCTHREADS=16 
 Creating input file /temp0/mauro/qchem1797140/Frg4.input
 using default PutDataFrgm: nothing
 calling putenv with: QCSCRATCH=/temp0/mauro/qchem1797140/ 
 Spawning Job For Fragment 3
 Done Job For Fragment 3
 calling putenv with: QCSCRATCH=/temp0/mauro 
 calling putenv with: QCTHREADS=16 
 Time for running child jobs:  CPU 0.03 s  wall 15.90 s
 ============= Method Specific SAD Guess Constructed =============
 Guess from on-the-fly superposition of atomic densities
 Warning: Energy on first SCF cycle will be non-variational

 -----------------------------------------------------------------------
  General SCF calculation program by
  Eric Jon Sundstrom, Paul Horn, Yuezhi Mao, Dmitri Zuev, Alec White,
  David Stuck, Shaama M.S., Shane Yost, Joonho Lee, David Small,
  Daniel Levine, Susi Lehtola, Hugh Burton, Evgeny Epifanovsky,
  Bang C. Huynh
 -----------------------------------------------------------------------
 Hartree-Fock
 using 16 threads for integral computing
 -------------------------------------------------------
 OpenMP Integral computing Module                
 Release: version 1.0, May 2013, Q-Chem Inc. Pittsburgh 
 -------------------------------------------------------
 A restricted SCF calculation will be
 performed using DIIS
 SCF converges when DIIS error is below 1.0e-10
 ---------------------------------------
  Cycle       Energy         DIIS error
 ---------------------------------------
    1   -2192.3685137903      1.56e-02  
    2   -2187.7607629353      1.84e-03  
    3   -2187.9019185434      1.54e-03  
    4   -2188.0533088511      2.28e-04  
    5   -2188.0597575588      6.35e-05  
    6   -2188.0602817388      2.22e-05  
    7   -2188.0603848279      1.20e-05  
    8   -2188.0604106680      4.66e-06  
    9   -2188.0604149643      1.67e-06  
   10   -2188.0604154863      5.69e-07  
   11   -2188.0604155442      2.30e-07  
   12   -2188.0604155543      7.40e-08  
   13   -2188.0604155563      3.77e-08  
   14   -2188.0604155570      1.90e-08  
   15   -2188.0604155571      9.50e-09  
   16   -2188.0604155572      3.09e-09  
   17   -2188.0604155572      1.21e-09  
   18   -2188.0604155572      6.02e-10  
   19   -2188.0604155572      2.33e-10  
   20   -2188.0604155572      1.07e-10  
   21   -2188.0604155572      4.11e-11  Convergence criterion met
 ---------------------------------------
 SCF time:   CPU 16192.37s  wall 1206.00s 
 SCF   energy = -2188.06041556
 Total energy = -2188.06041556


 ------------------------------------------------------------------------------

   CCMAN2: suite of methods based on coupled cluster
           and equation of motion theories.

   Components:
   * libvmm-1.3-trunk
     by Evgeny Epifanovsky, Ilya Kaliman.
   * libtensor-2.5-trunk
     by Evgeny Epifanovsky, Michael Wormit, Dmitry Zuev, Sam Manzer, 
        Ilya Kaliman.
   * libcc-2.5-trunk
     by Evgeny Epifanovsky, Arik Landau, Tomasz Kus, Kirill Khistyaev, 
        Dmitry Zuev, Prashant Manohar, Xintian Feng, Anna Krylov, 
        Matthew Goldey, Alec White, Thomas Jagau, Kaushik Nanda, 
        Anastasia Gunina, Alexander Kunitsa, Joonho Lee.

   CCMAN original authors:
   Anna I. Krylov, C. David Sherrill, Steven R. Gwaltney,
   Edward F. C. Byrd (2000)
   Sergey V. Levchenko, Lyudmila V. Slipchenko, Tao Wang,
   Ana-Maria C. Cristian (2003)
   Piotr A. Pieniazek, C. Melania Oana, Evgeny Epifanovsky (2007)
   Prashant Manohar (2009)

 ------------------------------------------------------------------------------


 Allocating and initializing 495000MB of RAM (this may take a while)...
 Calculation will run on 16 cores.


 Alpha MOs, Restricted
 -- Occupied --                  
-32.796 -32.796 -32.795 -32.795 -32.795 -32.795 -32.795 -32.795
  1 A     2 A     3 A     4 A     5 A     6 A     7 A     8 A                  
-32.795 -32.794 -32.794 -32.794 -20.612 -20.593 -20.592 -20.575
  9 A    10 A    11 A    12 A    13 A    14 A    15 A    16 A                  
-11.378 -11.358 -11.341 -11.322 -11.299 -11.292 -11.292 -11.276
 17 A    18 A    19 A    20 A    21 A    22 A    23 A    24 A                  
-11.252  -1.941  -1.941  -1.941  -1.941  -1.941  -1.941  -1.940
 25 A    26 A    27 A    28 A    29 A    30 A    31 A    32 A                  
 -1.940  -1.940  -1.940  -1.940  -1.939  -1.441  -1.416  -1.405
 33 A    34 A    35 A    36 A    37 A    38 A    39 A    40 A                  
 -1.384  -1.156  -1.077  -0.998  -0.971  -0.945  -0.914  -0.854
 41 A    42 A    43 A    44 A    45 A    46 A    47 A    48 A                  
 -0.854  -0.854  -0.854  -0.854  -0.854  -0.854  -0.854  -0.854
 49 A    50 A    51 A    52 A    53 A    54 A    55 A    56 A                  
 -0.853  -0.853  -0.853  -0.853  -0.853  -0.853  -0.853  -0.853
 57 A    58 A    59 A    60 A    61 A    62 A    63 A    64 A                  
 -0.853  -0.853  -0.853  -0.853  -0.853  -0.853  -0.853  -0.853
 65 A    66 A    67 A    68 A    69 A    70 A    71 A    72 A                  
 -0.853  -0.853  -0.852  -0.852  -0.852  -0.852  -0.852  -0.852
 73 A    74 A    75 A    76 A    77 A    78 A    79 A    80 A                  
 -0.852  -0.852  -0.852  -0.837  -0.813  -0.747  -0.710  -0.707
 81 A    82 A    83 A    84 A    85 A    86 A    87 A    88 A                  
 -0.670  -0.659  -0.647  -0.637  -0.631  -0.616  -0.606  -0.589
 89 A    90 A    91 A    92 A    93 A    94 A    95 A    96 A                  
 -0.572  -0.560  -0.558  -0.545  -0.538  -0.522  -0.514  -0.473
 97 A    98 A    99 A   100 A   101 A   102 A   103 A   104 A                  
 -0.444  -0.437  -0.398  -0.349
105 A   106 A   107 A   108 A                                                  
 -- Virtual --                   
  0.000   0.001   0.001   0.002   0.002   0.002   0.002   0.003
109 A   110 A   111 A   112 A   113 A   114 A   115 A   116 A                  
  0.004   0.004   0.005   0.006   0.006   0.006   0.006   0.007
117 A   118 A   119 A   120 A   121 A   122 A   123 A   124 A                  
  0.007   0.008   0.009   0.009   0.010   0.010   0.011   0.012
125 A   126 A   127 A   128 A   129 A   130 A   131 A   132 A                  
  0.013   0.013   0.013   0.014   0.015   0.016   0.017   0.018
133 A   134 A   135 A   136 A   137 A   138 A   139 A   140 A                  
  0.018   0.019   0.019   0.020   0.021   0.022   0.022   0.022
141 A   142 A   143 A   144 A   145 A   146 A   147 A   148 A                  
  0.024   0.024   0.024   0.025   0.025   0.025   0.026   0.026
149 A   150 A   151 A   152 A   153 A   154 A   155 A   156 A                  
  0.027   0.028   0.029   0.030   0.031   0.033   0.035   0.037
157 A   158 A   159 A   160 A   161 A   162 A   163 A   164 A                  
  0.038   0.040   0.040   0.040   0.041   0.042   0.043   0.043
165 A   166 A   167 A   168 A   169 A   170 A   171 A   172 A                  
  0.045   0.046   0.047   0.047   0.049   0.049   0.050   0.051
173 A   174 A   175 A   176 A   177 A   178 A   179 A   180 A                  
  0.052   0.054   0.054   0.056   0.057   0.058   0.058   0.059
181 A   182 A   183 A   184 A   185 A   186 A   187 A   188 A                  
  0.060   0.062   0.063   0.064   0.064   0.064   0.067   0.068
189 A   190 A   191 A   192 A   193 A   194 A   195 A   196 A                  
  0.068   0.072   0.074   0.075   0.077   0.080   0.081   0.082
197 A   198 A   199 A   200 A   201 A   202 A   203 A   204 A                  
  0.084   0.085   0.086   0.087   0.089   0.090   0.092   0.095
205 A   206 A   207 A   208 A   209 A   210 A   211 A   212 A                  
  0.097   0.099   0.101   0.103   0.105   0.107   0.107   0.109
213 A   214 A   215 A   216 A   217 A   218 A   219 A   220 A                  
  0.111   0.112   0.114   0.118   0.118   0.121   0.122   0.124
221 A   222 A   223 A   224 A   225 A   226 A   227 A   228 A                  
  0.126   0.127   0.129   0.129   0.131   0.132   0.133   0.134
229 A   230 A   231 A   232 A   233 A   234 A   235 A   236 A                  
  0.136   0.137   0.141   0.145   0.146   0.147   0.148   0.152
237 A   238 A   239 A   240 A   241 A   242 A   243 A   244 A                  
  0.153   0.154   0.158   0.164   0.166   0.168   0.172   0.173
245 A   246 A   247 A   248 A   249 A   250 A   251 A   252 A                  
  0.177   0.178   0.179   0.183   0.185   0.186   0.188   0.192
253 A   254 A   255 A   256 A   257 A   258 A   259 A   260 A                  
  0.195   0.199   0.204   0.204   0.206   0.210   0.212   0.215
261 A   262 A   263 A   264 A   265 A   266 A   267 A   268 A                  
  0.219   0.222   0.228   0.231   0.232   0.237   0.241   0.242
269 A   270 A   271 A   272 A   273 A   274 A   275 A   276 A                  
  0.243   0.247   0.252   0.255   0.263   0.265   0.271   0.273
277 A   278 A   279 A   280 A   281 A   282 A   283 A   284 A                  
  0.275   0.276   0.279   0.283   0.286   0.286   0.289   0.290
285 A   286 A   287 A   288 A   289 A   290 A   291 A   292 A                  
  0.290   0.291   0.291   0.291   0.292   0.292   0.292   0.292
293 A   294 A   295 A   296 A   297 A   298 A   299 A   300 A                  
  0.292   0.292   0.292   0.293   0.293   0.293   0.293   0.293
301 A   302 A   303 A   304 A   305 A   306 A   307 A   308 A                  
  0.293   0.293   0.293   0.293   0.293   0.293   0.293   0.293
309 A   310 A   311 A   312 A   313 A   314 A   315 A   316 A                  
  0.293   0.294   0.294   0.294   0.294   0.294   0.294   0.294
317 A   318 A   319 A   320 A   321 A   322 A   323 A   324 A                  
  0.294   0.294   0.295   0.295   0.295   0.295   0.296   0.296
325 A   326 A   327 A   328 A   329 A   330 A   331 A   332 A                  
  0.296   0.296   0.296   0.297   0.297   0.298   0.299   0.300
333 A   334 A   335 A   336 A   337 A   338 A   339 A   340 A                  
  0.301   0.304   0.308   0.313   0.317   0.321   0.327   0.331
341 A   342 A   343 A   344 A   345 A   346 A   347 A   348 A                  
  0.337   0.339   0.346   0.352   0.354   0.363   0.366   0.374
349 A   350 A   351 A   352 A   353 A   354 A   355 A   356 A                  
  0.376   0.379   0.384   0.390   0.392   0.393   0.399   0.402
357 A   358 A   359 A   360 A   361 A   362 A   363 A   364 A                  
  0.408   0.410   0.422   0.429   0.443   0.444   0.448   0.450
365 A   366 A   367 A   368 A   369 A   370 A   371 A   372 A                  
  0.457   0.464   0.468   0.470   0.476   0.481   0.483   0.487
373 A   374 A   375 A   376 A   377 A   378 A   379 A   380 A                  
  0.491   0.499   0.505   0.509   0.514   0.522   0.523   0.528
381 A   382 A   383 A   384 A   385 A   386 A   387 A   388 A                  
  0.531   0.541   0.546   0.549   0.556   0.560   0.567   0.571
389 A   390 A   391 A   392 A   393 A   394 A   395 A   396 A                  
  0.576   0.582   0.586   0.592   0.597   0.610   0.611   0.623
397 A   398 A   399 A   400 A   401 A   402 A   403 A   404 A                  
  0.629   0.632   0.637   0.643   0.649   0.653   0.666   0.668
405 A   406 A   407 A   408 A   409 A   410 A   411 A   412 A                  
  0.675   0.680   0.681   0.681   0.690   0.696   0.704   0.706
413 A   414 A   415 A   416 A   417 A   418 A   419 A   420 A                  
  0.715   0.716   0.721   0.725   0.731   0.739   0.745   0.753
421 A   422 A   423 A   424 A   425 A   426 A   427 A   428 A                  
  0.755   0.760   0.768   0.773   0.777   0.787   0.794   0.803
429 A   430 A   431 A   432 A   433 A   434 A   435 A   436 A                  
  0.807   0.813   0.822   0.823   0.832   0.838   0.845   0.857
437 A   438 A   439 A   440 A   441 A   442 A   443 A   444 A                  
  0.859   0.872   0.889   0.892   0.894   0.901   0.906   0.914
445 A   446 A   447 A   448 A   449 A   450 A   451 A   452 A                  
  0.923   0.943   0.946   0.949   0.965   0.974   0.980   0.992
453 A   454 A   455 A   456 A   457 A   458 A   459 A   460 A                  
  1.010   1.013   1.025   1.030   1.045   1.056   1.071   1.083
461 A   462 A   463 A   464 A   465 A   466 A   467 A   468 A                  
  1.091   1.099   1.111   1.117   1.127   1.140   1.154   1.164
469 A   470 A   471 A   472 A   473 A   474 A   475 A   476 A                  
  1.173   1.182   1.193   1.205   1.215   1.231   1.244   1.254
477 A   478 A   479 A   480 A   481 A   482 A   483 A   484 A                  
  1.272   1.277   1.289   1.295   1.318   1.327   1.357   1.363
485 A   486 A   487 A   488 A   489 A   490 A   491 A   492 A                  
  1.375   1.389   1.410   1.416   1.429   1.439   1.448   1.468
493 A   494 A   495 A   496 A   497 A   498 A   499 A   500 A                  
  1.477   1.489   1.500   1.508   1.525   1.535   1.554   1.565
501 A   502 A   503 A   504 A   505 A   506 A   507 A   508 A                  
  1.568   1.594   1.608   1.611   1.620   1.659   1.661   1.670
509 A   510 A   511 A   512 A   513 A   514 A   515 A   516 A                  
  1.674   1.684   1.699   1.706   1.712   1.728   1.733   1.754
517 A   518 A   519 A   520 A   521 A   522 A   523 A   524 A                  
  1.757   1.757   1.757   1.757   1.757   1.757   1.757   1.757
525 A   526 A   527 A   528 A   529 A   530 A   531 A   532 A                  
  1.757   1.757   1.757   1.757   1.757   1.757   1.757   1.757
533 A   534 A   535 A   536 A   537 A   538 A   539 A   540 A                  
  1.757   1.757   1.757   1.757   1.757   1.757   1.757   1.757
541 A   542 A   543 A   544 A   545 A   546 A   547 A   548 A                  
  1.757   1.758   1.758   1.758   1.758   1.758   1.758   1.758
549 A   550 A   551 A   552 A   553 A   554 A   555 A   556 A                  
  1.758   1.758   1.758   1.758   1.758   1.758   1.758   1.758
557 A   558 A   559 A   560 A   561 A   562 A   563 A   564 A                  
  1.758   1.758   1.758   1.758   1.758   1.758   1.758   1.758
565 A   566 A   567 A   568 A   569 A   570 A   571 A   572 A                  
  1.758   1.758   1.758   1.758   1.758   1.758   1.758   1.759
573 A   574 A   575 A   576 A   577 A   578 A   579 A   580 A                  
  1.759   1.759   1.759   1.759   1.761   1.769   1.772   1.781
581 A   582 A   583 A   584 A   585 A   586 A   587 A   588 A                  
  1.794   1.797   1.813   1.821   1.842   1.855   1.867   1.886
589 A   590 A   591 A   592 A   593 A   594 A   595 A   596 A                  
  1.896   1.901   1.918   1.927   1.934   1.946   1.947   1.961
597 A   598 A   599 A   600 A   601 A   602 A   603 A   604 A                  
  1.961   1.961   1.961   1.961   1.961   1.961   1.961   1.961
605 A   606 A   607 A   608 A   609 A   610 A   611 A   612 A                  
  1.961   1.961   1.961   1.961   1.961   1.962   1.962   1.962
613 A   614 A   615 A   616 A   617 A   618 A   619 A   620 A                  
  1.962   1.962   1.962   1.962   1.962   1.962   1.962   1.962
621 A   622 A   623 A   624 A   625 A   626 A   627 A   628 A                  
  1.962   1.962   1.962   1.963   1.963   1.963   1.963   1.963
629 A   630 A   631 A   632 A   633 A   634 A   635 A   636 A                  
  1.963   1.963   1.963   1.964   1.971   1.977   1.982   1.994
637 A   638 A   639 A   640 A   641 A   642 A   643 A   644 A                  
  2.021   2.035   2.049   2.063   2.075   2.088   2.106   2.116
645 A   646 A   647 A   648 A   649 A   650 A   651 A   652 A                  
  2.148   2.156   2.158   2.167   2.184   2.197   2.208   2.213
653 A   654 A   655 A   656 A   657 A   658 A   659 A   660 A                  
  2.230   2.244   2.251   2.264   2.271   2.273   2.282   2.293
661 A   662 A   663 A   664 A   665 A   666 A   667 A   668 A                  
  2.306   2.311   2.320   2.334   2.359   2.378   2.385   2.395
669 A   670 A   671 A   672 A   673 A   674 A   675 A   676 A                  
  2.419   2.437   2.447   2.461   2.499   2.506   2.522   2.526
677 A   678 A   679 A   680 A   681 A   682 A   683 A   684 A                  
  2.541   2.546   2.576   2.582   2.607   2.628   2.664   2.673
685 A   686 A   687 A   688 A   689 A   690 A   691 A   692 A                  
  2.693   2.719   2.732   2.744   2.745   2.746   2.746   2.747
693 A   694 A   695 A   696 A   697 A   698 A   699 A   700 A                  
  2.747   2.747   2.747   2.747   2.748   2.748   2.749   2.751
701 A   702 A   703 A   704 A   705 A   706 A   707 A   708 A                  
  2.761   2.793   2.817   2.832   2.847   2.890   2.925   2.937
709 A   710 A   711 A   712 A   713 A   714 A   715 A   716 A                  
  2.962   2.969   3.008   3.037   3.048   3.066   3.084   3.143
717 A   718 A   719 A   720 A   721 A   722 A   723 A   724 A                  
  3.163   3.194   3.324   3.349   3.405   3.438   3.480   3.539
725 A   726 A   727 A   728 A   729 A   730 A   731 A   732 A                  
  3.655   3.711   3.763   3.812   3.819   3.834   3.861   3.862
733 A   734 A   735 A   736 A   737 A   738 A   739 A   740 A                  
  3.882   3.898   3.942   3.962   3.994   4.026   4.044   4.076
741 A   742 A   743 A   744 A   745 A   746 A   747 A   748 A                  
  4.089   4.117   4.164   4.188   4.191   4.244   4.286   4.766
749 A   750 A   751 A   752 A   753 A   754 A   755 A   756 A                  
  6.372   6.372   6.372   6.372   6.372   6.372   6.372   6.372
757 A   758 A   759 A   760 A   761 A   762 A   763 A   764 A                  
  6.372   6.372   6.372   6.372   6.372   6.372   6.372   6.372
765 A   766 A   767 A   768 A   769 A   770 A   771 A   772 A                  
  6.372   6.372   6.372   6.372   6.372   6.372   6.372   6.372
773 A   774 A   775 A   776 A   777 A   778 A   779 A   780 A                  
  6.372   6.372   6.372   6.372   6.372   6.372   6.372   6.372
781 A   782 A   783 A   784 A   785 A   786 A   787 A   788 A                  
  6.372   6.372   6.372   6.373   6.373   6.373   6.373   6.373
789 A   790 A   791 A   792 A   793 A   794 A   795 A   796 A                  
  6.373   6.373   6.373   6.373   6.373   6.373   6.373   6.373
797 A   798 A   799 A   800 A   801 A   802 A   803 A   804 A                  
  6.373   6.373   6.373   6.373   6.373   6.373   6.373   6.374
805 A   806 A   807 A   808 A   809 A   810 A   811 A   812 A                  
  6.374   6.374   6.374   6.374
813 A   814 A   815 A   816 A                                                  

 Beta MOs, Restricted
 -- Occupied --                  
-32.796 -32.796 -32.795 -32.795 -32.795 -32.795 -32.795 -32.795
  1 A     2 A     3 A     4 A     5 A     6 A     7 A     8 A                  
-32.795 -32.794 -32.794 -32.794 -20.612 -20.593 -20.592 -20.575
  9 A    10 A    11 A    12 A    13 A    14 A    15 A    16 A                  
-11.378 -11.358 -11.341 -11.322 -11.299 -11.292 -11.292 -11.276
 17 A    18 A    19 A    20 A    21 A    22 A    23 A    24 A                  
-11.252  -1.941  -1.941  -1.941  -1.941  -1.941  -1.941  -1.940
 25 A    26 A    27 A    28 A    29 A    30 A    31 A    32 A                  
 -1.940  -1.940  -1.940  -1.940  -1.939  -1.441  -1.416  -1.405
 33 A    34 A    35 A    36 A    37 A    38 A    39 A    40 A                  
 -1.384  -1.156  -1.077  -0.998  -0.971  -0.945  -0.914  -0.854
 41 A    42 A    43 A    44 A    45 A    46 A    47 A    48 A                  
 -0.854  -0.854  -0.854  -0.854  -0.854  -0.854  -0.854  -0.854
 49 A    50 A    51 A    52 A    53 A    54 A    55 A    56 A                  
 -0.853  -0.853  -0.853  -0.853  -0.853  -0.853  -0.853  -0.853
 57 A    58 A    59 A    60 A    61 A    62 A    63 A    64 A                  
 -0.853  -0.853  -0.853  -0.853  -0.853  -0.853  -0.853  -0.853
 65 A    66 A    67 A    68 A    69 A    70 A    71 A    72 A                  
 -0.853  -0.853  -0.852  -0.852  -0.852  -0.852  -0.852  -0.852
 73 A    74 A    75 A    76 A    77 A    78 A    79 A    80 A                  
 -0.852  -0.852  -0.852  -0.837  -0.813  -0.747  -0.710  -0.707
 81 A    82 A    83 A    84 A    85 A    86 A    87 A    88 A                  
 -0.670  -0.659  -0.647  -0.637  -0.631  -0.616  -0.606  -0.589
 89 A    90 A    91 A    92 A    93 A    94 A    95 A    96 A                  
 -0.572  -0.560  -0.558  -0.545  -0.538  -0.522  -0.514  -0.473
 97 A    98 A    99 A   100 A   101 A   102 A   103 A   104 A                  
 -0.444  -0.437  -0.398  -0.349
105 A   106 A   107 A   108 A                                                  
 -- Virtual --                   
  0.000   0.001   0.001   0.002   0.002   0.002   0.002   0.003
109 A   110 A   111 A   112 A   113 A   114 A   115 A   116 A                  
  0.004   0.004   0.005   0.006   0.006   0.006   0.006   0.007
117 A   118 A   119 A   120 A   121 A   122 A   123 A   124 A                  
  0.007   0.008   0.009   0.009   0.010   0.010   0.011   0.012
125 A   126 A   127 A   128 A   129 A   130 A   131 A   132 A                  
  0.013   0.013   0.013   0.014   0.015   0.016   0.017   0.018
133 A   134 A   135 A   136 A   137 A   138 A   139 A   140 A                  
  0.018   0.019   0.019   0.020   0.021   0.022   0.022   0.022
141 A   142 A   143 A   144 A   145 A   146 A   147 A   148 A                  
  0.024   0.024   0.024   0.025   0.025   0.025   0.026   0.026
149 A   150 A   151 A   152 A   153 A   154 A   155 A   156 A                  
  0.027   0.028   0.029   0.030   0.031   0.033   0.035   0.037
157 A   158 A   159 A   160 A   161 A   162 A   163 A   164 A                  
  0.038   0.040   0.040   0.040   0.041   0.042   0.043   0.043
165 A   166 A   167 A   168 A   169 A   170 A   171 A   172 A                  
  0.045   0.046   0.047   0.047   0.049   0.049   0.050   0.051
173 A   174 A   175 A   176 A   177 A   178 A   179 A   180 A                  
  0.052   0.054   0.054   0.056   0.057   0.058   0.058   0.059
181 A   182 A   183 A   184 A   185 A   186 A   187 A   188 A                  
  0.060   0.062   0.063   0.064   0.064   0.064   0.067   0.068
189 A   190 A   191 A   192 A   193 A   194 A   195 A   196 A                  
  0.068   0.072   0.074   0.075   0.077   0.080   0.081   0.082
197 A   198 A   199 A   200 A   201 A   202 A   203 A   204 A                  
  0.084   0.085   0.086   0.087   0.089   0.090   0.092   0.095
205 A   206 A   207 A   208 A   209 A   210 A   211 A   212 A                  
  0.097   0.099   0.101   0.103   0.105   0.107   0.107   0.109
213 A   214 A   215 A   216 A   217 A   218 A   219 A   220 A                  
  0.111   0.112   0.114   0.118   0.118   0.121   0.122   0.124
221 A   222 A   223 A   224 A   225 A   226 A   227 A   228 A                  
  0.126   0.127   0.129   0.129   0.131   0.132   0.133   0.134
229 A   230 A   231 A   232 A   233 A   234 A   235 A   236 A                  
  0.136   0.137   0.141   0.145   0.146   0.147   0.148   0.152
237 A   238 A   239 A   240 A   241 A   242 A   243 A   244 A                  
  0.153   0.154   0.158   0.164   0.166   0.168   0.172   0.173
245 A   246 A   247 A   248 A   249 A   250 A   251 A   252 A                  
  0.177   0.178   0.179   0.183   0.185   0.186   0.188   0.192
253 A   254 A   255 A   256 A   257 A   258 A   259 A   260 A                  
  0.195   0.199   0.204   0.204   0.206   0.210   0.212   0.215
261 A   262 A   263 A   264 A   265 A   266 A   267 A   268 A                  
  0.219   0.222   0.228   0.231   0.232   0.237   0.241   0.242
269 A   270 A   271 A   272 A   273 A   274 A   275 A   276 A                  
  0.243   0.247   0.252   0.255   0.263   0.265   0.271   0.273
277 A   278 A   279 A   280 A   281 A   282 A   283 A   284 A                  
  0.275   0.276   0.279   0.283   0.286   0.286   0.289   0.290
285 A   286 A   287 A   288 A   289 A   290 A   291 A   292 A                  
  0.290   0.291   0.291   0.291   0.292   0.292   0.292   0.292
293 A   294 A   295 A   296 A   297 A   298 A   299 A   300 A                  
  0.292   0.292   0.292   0.293   0.293   0.293   0.293   0.293
301 A   302 A   303 A   304 A   305 A   306 A   307 A   308 A                  
  0.293   0.293   0.293   0.293   0.293   0.293   0.293   0.293
309 A   310 A   311 A   312 A   313 A   314 A   315 A   316 A                  
  0.293   0.294   0.294   0.294   0.294   0.294   0.294   0.294
317 A   318 A   319 A   320 A   321 A   322 A   323 A   324 A                  
  0.294   0.294   0.295   0.295   0.295   0.295   0.296   0.296
325 A   326 A   327 A   328 A   329 A   330 A   331 A   332 A                  
  0.296   0.296   0.296   0.297   0.297   0.298   0.299   0.300
333 A   334 A   335 A   336 A   337 A   338 A   339 A   340 A                  
  0.301   0.304   0.308   0.313   0.317   0.321   0.327   0.331
341 A   342 A   343 A   344 A   345 A   346 A   347 A   348 A                  
  0.337   0.339   0.346   0.352   0.354   0.363   0.366   0.374
349 A   350 A   351 A   352 A   353 A   354 A   355 A   356 A                  
  0.376   0.379   0.384   0.390   0.392   0.393   0.399   0.402
357 A   358 A   359 A   360 A   361 A   362 A   363 A   364 A                  
  0.408   0.410   0.422   0.429   0.443   0.444   0.448   0.450
365 A   366 A   367 A   368 A   369 A   370 A   371 A   372 A                  
  0.457   0.464   0.468   0.470   0.476   0.481   0.483   0.487
373 A   374 A   375 A   376 A   377 A   378 A   379 A   380 A                  
  0.491   0.499   0.505   0.509   0.514   0.522   0.523   0.528
381 A   382 A   383 A   384 A   385 A   386 A   387 A   388 A                  
  0.531   0.541   0.546   0.549   0.556   0.560   0.567   0.571
389 A   390 A   391 A   392 A   393 A   394 A   395 A   396 A                  
  0.576   0.582   0.586   0.592   0.597   0.610   0.611   0.623
397 A   398 A   399 A   400 A   401 A   402 A   403 A   404 A                  
  0.629   0.632   0.637   0.643   0.649   0.653   0.666   0.668
405 A   406 A   407 A   408 A   409 A   410 A   411 A   412 A                  
  0.675   0.680   0.681   0.681   0.690   0.696   0.704   0.706
413 A   414 A   415 A   416 A   417 A   418 A   419 A   420 A                  
  0.715   0.716   0.721   0.725   0.731   0.739   0.745   0.753
421 A   422 A   423 A   424 A   425 A   426 A   427 A   428 A                  
  0.755   0.760   0.768   0.773   0.777   0.787   0.794   0.803
429 A   430 A   431 A   432 A   433 A   434 A   435 A   436 A                  
  0.807   0.813   0.822   0.823   0.832   0.838   0.845   0.857
437 A   438 A   439 A   440 A   441 A   442 A   443 A   444 A                  
  0.859   0.872   0.889   0.892   0.894   0.901   0.906   0.914
445 A   446 A   447 A   448 A   449 A   450 A   451 A   452 A                  
  0.923   0.943   0.946   0.949   0.965   0.974   0.980   0.992
453 A   454 A   455 A   456 A   457 A   458 A   459 A   460 A                  
  1.010   1.013   1.025   1.030   1.045   1.056   1.071   1.083
461 A   462 A   463 A   464 A   465 A   466 A   467 A   468 A                  
  1.091   1.099   1.111   1.117   1.127   1.140   1.154   1.164
469 A   470 A   471 A   472 A   473 A   474 A   475 A   476 A                  
  1.173   1.182   1.193   1.205   1.215   1.231   1.244   1.254
477 A   478 A   479 A   480 A   481 A   482 A   483 A   484 A                  
  1.272   1.277   1.289   1.295   1.318   1.327   1.357   1.363
485 A   486 A   487 A   488 A   489 A   490 A   491 A   492 A                  
  1.375   1.389   1.410   1.416   1.429   1.439   1.448   1.468
493 A   494 A   495 A   496 A   497 A   498 A   499 A   500 A                  
  1.477   1.489   1.500   1.508   1.525   1.535   1.554   1.565
501 A   502 A   503 A   504 A   505 A   506 A   507 A   508 A                  
  1.568   1.594   1.608   1.611   1.620   1.659   1.661   1.670
509 A   510 A   511 A   512 A   513 A   514 A   515 A   516 A                  
  1.674   1.684   1.699   1.706   1.712   1.728   1.733   1.754
517 A   518 A   519 A   520 A   521 A   522 A   523 A   524 A                  
  1.757   1.757   1.757   1.757   1.757   1.757   1.757   1.757
525 A   526 A   527 A   528 A   529 A   530 A   531 A   532 A                  
  1.757   1.757   1.757   1.757   1.757   1.757   1.757   1.757
533 A   534 A   535 A   536 A   537 A   538 A   539 A   540 A                  
  1.757   1.757   1.757   1.757   1.757   1.757   1.757   1.757
541 A   542 A   543 A   544 A   545 A   546 A   547 A   548 A                  
  1.757   1.758   1.758   1.758   1.758   1.758   1.758   1.758
549 A   550 A   551 A   552 A   553 A   554 A   555 A   556 A                  
  1.758   1.758   1.758   1.758   1.758   1.758   1.758   1.758
557 A   558 A   559 A   560 A   561 A   562 A   563 A   564 A                  
  1.758   1.758   1.758   1.758   1.758   1.758   1.758   1.758
565 A   566 A   567 A   568 A   569 A   570 A   571 A   572 A                  
  1.758   1.758   1.758   1.758   1.758   1.758   1.758   1.759
573 A   574 A   575 A   576 A   577 A   578 A   579 A   580 A                  
  1.759   1.759   1.759   1.759   1.761   1.769   1.772   1.781
581 A   582 A   583 A   584 A   585 A   586 A   587 A   588 A                  
  1.794   1.797   1.813   1.821   1.842   1.855   1.867   1.886
589 A   590 A   591 A   592 A   593 A   594 A   595 A   596 A                  
  1.896   1.901   1.918   1.927   1.934   1.946   1.947   1.961
597 A   598 A   599 A   600 A   601 A   602 A   603 A   604 A                  
  1.961   1.961   1.961   1.961   1.961   1.961   1.961   1.961
605 A   606 A   607 A   608 A   609 A   610 A   611 A   612 A                  
  1.961   1.961   1.961   1.961   1.961   1.962   1.962   1.962
613 A   614 A   615 A   616 A   617 A   618 A   619 A   620 A                  
  1.962   1.962   1.962   1.962   1.962   1.962   1.962   1.962
621 A   622 A   623 A   624 A   625 A   626 A   627 A   628 A                  
  1.962   1.962   1.962   1.963   1.963   1.963   1.963   1.963
629 A   630 A   631 A   632 A   633 A   634 A   635 A   636 A                  
  1.963   1.963   1.963   1.964   1.971   1.977   1.982   1.994
637 A   638 A   639 A   640 A   641 A   642 A   643 A   644 A                  
  2.021   2.035   2.049   2.063   2.075   2.088   2.106   2.116
645 A   646 A   647 A   648 A   649 A   650 A   651 A   652 A                  
  2.148   2.156   2.158   2.167   2.184   2.197   2.208   2.213
653 A   654 A   655 A   656 A   657 A   658 A   659 A   660 A                  
  2.230   2.244   2.251   2.264   2.271   2.273   2.282   2.293
661 A   662 A   663 A   664 A   665 A   666 A   667 A   668 A                  
  2.306   2.311   2.320   2.334   2.359   2.378   2.385   2.395
669 A   670 A   671 A   672 A   673 A   674 A   675 A   676 A                  
  2.419   2.437   2.447   2.461   2.499   2.506   2.522   2.526
677 A   678 A   679 A   680 A   681 A   682 A   683 A   684 A                  
  2.541   2.546   2.576   2.582   2.607   2.628   2.664   2.673
685 A   686 A   687 A   688 A   689 A   690 A   691 A   692 A                  
  2.693   2.719   2.732   2.744   2.745   2.746   2.746   2.747
693 A   694 A   695 A   696 A   697 A   698 A   699 A   700 A                  
  2.747   2.747   2.747   2.747   2.748   2.748   2.749   2.751
701 A   702 A   703 A   704 A   705 A   706 A   707 A   708 A                  
  2.761   2.793   2.817   2.832   2.847   2.890   2.925   2.937
709 A   710 A   711 A   712 A   713 A   714 A   715 A   716 A                  
  2.962   2.969   3.008   3.037   3.048   3.066   3.084   3.143
717 A   718 A   719 A   720 A   721 A   722 A   723 A   724 A                  
  3.163   3.194   3.324   3.349   3.405   3.438   3.480   3.539
725 A   726 A   727 A   728 A   729 A   730 A   731 A   732 A                  
  3.655   3.711   3.763   3.812   3.819   3.834   3.861   3.862
733 A   734 A   735 A   736 A   737 A   738 A   739 A   740 A                  
  3.882   3.898   3.942   3.962   3.994   4.026   4.044   4.076
741 A   742 A   743 A   744 A   745 A   746 A   747 A   748 A                  
  4.089   4.117   4.164   4.188   4.191   4.244   4.286   4.766
749 A   750 A   751 A   752 A   753 A   754 A   755 A   756 A                  
  6.372   6.372   6.372   6.372   6.372   6.372   6.372   6.372
757 A   758 A   759 A   760 A   761 A   762 A   763 A   764 A                  
  6.372   6.372   6.372   6.372   6.372   6.372   6.372   6.372
765 A   766 A   767 A   768 A   769 A   770 A   771 A   772 A                  
  6.372   6.372   6.372   6.372   6.372   6.372   6.372   6.372
773 A   774 A   775 A   776 A   777 A   778 A   779 A   780 A                  
  6.372   6.372   6.372   6.372   6.372   6.372   6.372   6.372
781 A   782 A   783 A   784 A   785 A   786 A   787 A   788 A                  
  6.372   6.372   6.372   6.373   6.373   6.373   6.373   6.373
789 A   790 A   791 A   792 A   793 A   794 A   795 A   796 A                  
  6.373   6.373   6.373   6.373   6.373   6.373   6.373   6.373
797 A   798 A   799 A   800 A   801 A   802 A   803 A   804 A                  
  6.373   6.373   6.373   6.373   6.373   6.373   6.373   6.374
805 A   806 A   807 A   808 A   809 A   810 A   811 A   812 A                  
  6.374   6.374   6.374   6.374
813 A   814 A   815 A   816 A                                                  

 Occupation and symmetry of molecular orbitals

 Point group: C1 (1 irreducible representation).

                           A     All 
 -------------------------------------
 All molecular orbitals:
  - Alpha                  816   816 
  - Beta                   816   816 
 -------------------------------------
 Alpha orbitals:
  - Frozen occupied        25    25  
  - Active occupied        83    83  
  - Active virtual         708   708 
  - Frozen virtual         0     0   
 -------------------------------------
 Beta orbitals:
  - Frozen occupied        25    25  
  - Active occupied        83    83  
  - Active virtual         708   708 
  - Frozen virtual         0     0   
 -------------------------------------

 Import integrals:   CPU 0.00 s  wall 0.00 s

 Import integrals:   CPU 11348.37 s  wall 725.65 s


 MP2  CPU 8206.99 s  wall 567.61 s
Running a double precision version
           RI-CC2 T amplitudes will be solved using DIIS.

           Start     Size      MaxIter   EConv     TConv     
           3         7         100       1.00e-08  1.00e-07  
 ------------------------------------------------------------------------------
           Energy (a.u.)   Ediff      Tdiff       Comment
 ------------------------------------------------------------------------------
        -2192.5577500532                           
     1  -2192.5534536613   4.30e-03   1.86e+00     Step took 16.16.
     2  -2192.6002884420   4.68e-02   9.68e-02     
     3  -2192.6028597490   2.57e-03   5.61e-02     
     4  -2192.6093755983   6.52e-03   1.75e-02     Switched to DIIS steps.
     5  -2192.6130166298   3.64e-03   1.95e-02     
     6  -2192.6134136326   3.97e-04   3.76e-03     
     7  -2192.6134387528   2.51e-05   2.99e-03     
     8  -2192.6134447839   6.03e-06   9.46e-04     
     9  -2192.6134643623   1.96e-05   5.55e-04     
    10  -2192.6134714041   7.04e-06   2.68e-04     
    11  -2192.6134745514   3.15e-06   1.55e-04     
    12  -2192.6134767528   2.20e-06   1.27e-04     
    13  -2192.6134747787   1.97e-06   4.79e-05     
    14  -2192.6134741703   6.08e-07   2.55e-05     
    15  -2192.6134734265   7.44e-07   1.30e-05     
    16  -2192.6134728791   5.47e-07   7.63e-06     
    17  -2192.6134727124   1.67e-07   6.54e-06     
    18  -2192.6134726231   8.92e-08   2.82e-06     
    19  -2192.6134726197   3.41e-09   1.95e-06     
    20  -2192.6134726431   2.34e-08   1.17e-06     
    21  -2192.6134726338   9.25e-09   5.24e-07     
    22  -2192.6134726312   2.65e-09   4.84e-07     
    23  -2192.6134726316   3.84e-10   2.54e-07     
    24  -2192.6134726290   2.56e-09   1.55e-07     
    25  -2192.6134726304   1.37e-09   8.04e-08     
 ------------------------------------------------------------------------------
        -2192.6134726304                           CC2 T converged.

End of double precision
 SCF energy                 = -2188.06041556
 MP2 energy                 = -2192.55775005
 CC2 correlation energy    =    -4.55305707
 CC2 total energy          = -2192.61347263

 CC2  T1^2 = 0.0796  T2^2 = 1.1224  Leading amplitudes:

 Amplitude    Orbitals with energies
  0.0538       100 (A) A                 ->    123 (A) A                  
              -0.5452                          0.0064                     
  0.0538       100 (A) B                 ->    123 (A) B                  
              -0.5452                          0.0064                     
  0.0369       101 (A) A                 ->    123 (A) A                  
              -0.5381                          0.0064                     
  0.0369       101 (A) B                 ->    123 (A) B                  
              -0.5381                          0.0064                     

 Amplitude    Orbitals with energies
 -0.0540       107 (A) A     107 (A) B   ->    123 (A) A     123 (A) B    
              -0.3979       -0.3979            0.0064        0.0064       
  0.0540       107 (A) A     107 (A) B   ->    123 (A) B     123 (A) A    
              -0.3979       -0.3979            0.0064        0.0064       
  0.0540       107 (A) B     107 (A) A   ->    123 (A) A     123 (A) B    
              -0.3979       -0.3979            0.0064        0.0064       
 -0.0540       107 (A) B     107 (A) A   ->    123 (A) B     123 (A) A    
              -0.3979       -0.3979            0.0064        0.0064       

 Computing CC2 intermediates for later calculations in double precision
 Finished.


 CC2  CPU 419280.58 s  wall 29586.08 s
        Solving for EOMEA-CC2/MP2 A transitions.

Running a double precision version
      RI-EOMEA-CC2/MP2 right amplitudes will be solved using Davidson.
        Amplitudes will be solved using standard  algorithm.
     Hard-coded thresholds: 
     LinDepThresh=1.00e-15  NormThresh=1.00e-06  ReorthogonThresh=1.00e-02

      Roots     MaxVec    MaxIter   Precond   Conv      Shift    
      2         120       60        1         1.00e-08  0.00e+00  
 ------------------------------------------------------------------------------
      Iter ConvRoots NVecs ResNorm^2 Current eigenvalues (eV)
 ------------------------------------------------------------------------------
      0    0      2     2.54e-04   0.0127   0.0329   
      1    0      4     1.81e-04   0.0086   0.0315   
      2    0      6     4.17e-05   0.0024   0.0304   
      3    0      8     3.92e-05   -0.0016   0.0301   
      4    0      10    6.28e-05   -0.0039   0.0295   
      5    0      12    9.81e-03   -0.5489   -0.0046   
      6    0      14    2.77e-03   -1.4631   -0.0049   
      7    0      16    4.74e-04   -1.6849   -0.0050   
      8    0      18    4.10e-05   -1.7023   -0.0050   
      9    0      20    5.80e-06   -1.7041   -0.0050   
      10   1      22    1.46e-06   -1.7043   -0.0050*  
      11   1      23    2.58e-07   -1.7044   -0.0050*  
      12   1      24    5.46e-08   -1.7044   -0.0050*  
      13   1      25    1.36e-08   -1.7043   -0.0050*  
      14   2      26    3.66e-09   -1.7043*  -0.0050*  

     Davidson procedure converged

 EOMEA transition 1/A
 Total energy = -2192.67610616 a.u.  Excitation energy = -1.7043 eV.
 R1^2 = 0.9070  R2^2 = 0.0930  Res^2 = 2.09e-09
 Conv-d = yes

 Amplitude    Transitions between orbitals
 -0.8503       infty       ->    123 (A) B                  
 -0.3123       infty       ->    124 (A) B                  
 -0.1433       infty       ->    125 (A) B                  
  0.1342       infty       ->    126 (A) B                  
 -0.1326       infty       ->    120 (A) B                  

              Summary of significant orbitals:

               Number  Type             Irrep      Energy
               120     Vir  Beta      120 (A)      0.0057
               123     Vir  Beta      123 (A)      0.0064
               124     Vir  Beta      124 (A)      0.0068
               125     Vir  Beta      125 (A)      0.0074
               126     Vir  Beta      126 (A)      0.0080


 EOMEA transition 2/A
 Total energy = -2192.61365783 a.u.  Excitation energy = -0.0050 eV.
 R1^2 = 0.9978  R2^2 = 0.0022  Res^2 = 5.24e-09
 Conv-d = yes

 Amplitude    Transitions between orbitals
  0.9007       infty       ->    109 (A) B                  
 -0.2617       infty       ->    115 (A) B                  
  0.2326       infty       ->    114 (A) B                  
  0.0997       infty       ->    125 (A) B                  

              Summary of significant orbitals:

               Number  Type             Irrep      Energy
               109     Vir  Beta      109 (A)      0.0005
               114     Vir  Beta      114 (A)      0.0022
               115     Vir  Beta      115 (A)      0.0025
               125     Vir  Beta      125 (A)      0.0074


Running a double precision version
      RI-EOMEA-CC2/MP2 left amplitudes will be solved using Davidson.
        Amplitudes will be solved using MOM  algorithm.
     Hard-coded thresholds: 
     LinDepThresh=1.00e-15  NormThresh=1.00e-06  ReorthogonThresh=1.00e-02

      Roots     MaxVec    MaxIter   Precond   Conv      Shift    
      2         120       60        1         1.00e-08  0.00e+00  
 ------------------------------------------------------------------------------
      Iter ConvRoots NVecs ResNorm^2 Current eigenvalues (eV)
 ------------------------------------------------------------------------------
      0    0      2     9.90e-03   -1.7043   -0.0050   
      1    0      4     2.61e-03   -1.7043   -0.0050   
      2    0      6     6.40e-05   -1.7043   -0.0050   
      3    0      8     7.86e-06   -1.7043   -0.0050   
      4    0      10    1.50e-06   -1.7043   -0.0050   
      5    1      12    1.59e-07   -1.7043   -0.0050*  
      6    1      13    9.95e-08   -1.7043   -0.0050*  
      7    1      14    1.68e-08   -1.7043   -0.0050*  
      8    2      15    7.76e-09   -1.7043*  -0.0050*  

     Davidson procedure converged

 Excited state properties for  EOMEA-CC2 transition 1/A
 Dipole moment (a.u.): 1.783885 (X 0.339384, Y -1.538280, Z 0.837114)
 R-squared (a.u.): 173978.782145 (XX 58468.303899, YY 58225.900278, ZZ 57284.577969)
 Gauge origin (a.u.): (0.000000, 0.000000, 0.000000)
 Angular momentum (a.u.) against gauge origin: 
 (X -0.042519i, Y -0.108311i, Z -0.076083i)
 Traces of the OPDMs: Tr(AA) 108.000000, Tr(BB) 109.000000

 Excited state properties for  EOMEA-CC2 transition 2/A
 Dipole moment (a.u.): 12.597572 (X 4.901761, Y 7.290426, Z -9.028912)
 R-squared (a.u.): 175115.423450 (XX 58834.502256, YY 58607.768276, ZZ 57673.152918)
 Gauge origin (a.u.): (0.000000, 0.000000, 0.000000)
 Angular momentum (a.u.) against gauge origin: 
 (X -0.042925i, Y -0.092969i, Z -0.067414i)
 Traces of the OPDMs: Tr(AA) 108.000000, Tr(BB) 109.000000


 EOMEA-CC2  CPU 25319.39 s  wall 2851.41 s

 Start computing the transition properties

 ------------------------------------------------------------------------------
 State A: eomea_cc2/b: 1/A
 State B: cc2: 0/A

       ***    Dyson orbital calculation   *** 

 EOM-EA-CC2 state  1/A -- Reference  transition
 Energy difference = -1.7043 eV.

 Left Dyson orbital norm is 0.9587

Left beta Dyson orbital in the MO basis (canonical Q-Chem's ordering):
0  2.3227e-15  
1  -6.7186e-15 
2  -3.8145e-15 
3  1.9675e-16  
4  -4.6168e-15 
5  -9.3123e-15 
6  -1.3680e-15 
7  1.4239e-15  
8  -3.9133e-15 
9  3.6914e-15  
10 -4.0528e-15 
11 -6.7162e-15 
12 -5.5592e-16 
13 -9.8379e-16 
14 -4.6596e-17 
15 -2.1003e-15 
16 1.7136e-17  
17 -7.0476e-16 
18 4.0423e-17  
19 -4.4284e-16 
20 -1.6311e-16 
21 -1.9266e-15 
22 -3.6145e-16 
23 -5.6340e-17 
24 1.6535e-15  
25 1.6581e-07  
26 -3.5949e-08 
27 2.0500e-08  
28 -1.6489e-08 
29 7.6568e-08  
30 -4.3752e-08 
31 6.1991e-08  
32 3.6090e-08  
33 1.0947e-07  
34 -4.9848e-09 
35 5.4508e-08  
36 -4.0619e-08 
37 2.7728e-05  
38 1.0126e-03  
39 -7.5820e-04 
40 -1.1841e-03 
41 6.9436e-04  
42 4.4987e-04  
43 1.3178e-04  
44 1.5869e-03  
45 2.2258e-04  
46 2.0976e-03  
47 -2.0969e-07 
48 2.3429e-08  
49 -4.3586e-08 
50 -5.0789e-09 
51 -2.9648e-08 
52 4.3558e-08  
53 3.4699e-09  
54 -1.7823e-07 
55 -1.1627e-07 
56 -1.7345e-07 
57 -8.9170e-08 
58 1.5968e-07  
59 -3.2142e-08 
60 -2.4296e-09 
61 -4.8359e-08 
62 1.0611e-07  
63 7.0719e-08  
64 -1.0650e-07 
65 -2.9462e-08 
66 -5.6327e-08 
67 1.1417e-07  
68 -8.9031e-08 
69 -4.5911e-08 
70 5.5792e-08  
71 1.0567e-07  
72 7.4015e-08  
73 -3.9613e-08 
74 1.0123e-07  
75 7.9408e-09  
76 -1.8460e-07 
77 1.1106e-07  
78 1.7127e-08  
79 -1.5158e-07 
80 2.8002e-08  
81 -1.0513e-08 
82 1.2673e-07  
83 2.6985e-03  
84 1.5801e-04  
85 3.1673e-03  
86 -4.1627e-04 
87 -4.3527e-03 
88 2.1774e-02  
89 -3.2344e-03 
90 1.6214e-03  
91 -2.1088e-02 
92 2.2135e-02  
93 9.7228e-03  
94 2.5881e-02  
95 -1.3478e-04 
96 -3.2447e-03 
97 -4.1351e-03 
98 1.4984e-03  
99 6.6256e-02  
1004.6269e-02  
101-7.5331e-03 
102-2.0785e-02 
103-1.2513e-02 
104-9.8790e-03 
1051.4027e-02  
106-1.0889e-02 
107-1.2315e-02 
108-9.7682e-04 
109-3.9409e-03 
1109.8774e-03  
1111.0575e-02  
112-1.8511e-03 
1132.6871e-03  
114-1.9247e-03 
1157.4890e-03  
1161.2385e-02  
117-8.1931e-02 
1184.4358e-02  
119-1.3869e-01 
120-1.0614e-04 
121-7.1497e-04 
122-8.8908e-01 
123-3.2640e-01 
124-1.4959e-01 
1251.4012e-01  
126-1.9123e-02 
127-5.3039e-02 
128-2.9928e-02 
129-5.9684e-02 
130-2.5781e-02 
131-3.1610e-02 
132-1.9906e-02 
133-1.0301e-02 
134-1.6580e-02 
135-2.0504e-02 
1361.2429e-02  
137-1.1167e-03 
1381.6392e-02  
139-3.2544e-03 
140-3.8811e-02 
141-1.0086e-02 
142-8.9378e-03 
1433.7766e-02  
144-1.5667e-02 
1454.4029e-03  
146-1.6228e-02 
147-2.4164e-03 
148-7.3263e-03 
1496.2181e-03  
150-1.7240e-03 
1515.7185e-03  
1522.5238e-03  
1531.3661e-02  
154-8.4117e-03 
155-2.3237e-03 
156-1.9928e-02 
157-5.9091e-03 
1587.5381e-03  
159-4.0912e-03 
1602.2990e-03  
161-1.6537e-04 
162-2.0508e-02 
163-1.1032e-02 
164-1.5714e-02 
165-1.6887e-02 
166-1.3170e-02 
167-1.2978e-02 
168-2.4070e-05 
169-8.7345e-03 
1704.8796e-03  
1711.1097e-03  
1725.4094e-03  
173-3.0214e-03 
174-1.1253e-02 
175-4.1283e-03 
176-6.5830e-03 
177-1.5414e-03 
1781.2650e-03  
1792.4964e-03  
180-3.2977e-03 
1811.3425e-02  
1822.2892e-04  
1831.1923e-02  
184-1.0134e-02 
1855.7832e-03  
1861.4206e-03  
1872.4265e-03  
188-2.6579e-03 
189-6.3858e-03 
190-3.4804e-03 
191-9.0514e-04 
1929.2654e-03  
1933.7640e-03  
194-1.0146e-02 
195-5.7474e-03 
1961.3010e-03  
1975.6322e-03  
1982.8675e-03  
199-9.6689e-04 
2004.9949e-03  
2013.5032e-03  
2021.0004e-02  
2035.8016e-03  
204-8.0350e-03 
2057.1149e-03  
206-1.1945e-04 
2074.4333e-03  
208-8.7714e-04 
209-3.4765e-03 
2103.4110e-03  
2115.6165e-03  
2121.5036e-03  
2134.0704e-03  
2149.1271e-04  
215-1.0701e-02 
2165.9332e-03  
217-3.2210e-03 
2188.6774e-04  
219-2.6948e-03 
2201.4291e-04  
221-7.1612e-03 
2226.6886e-03  
2233.9410e-04  
224-5.1276e-06 
2252.0366e-04  
2266.3877e-03  
227-4.5757e-03 
2286.5131e-03  
2296.7694e-03  
230-6.6712e-04 
231-5.1104e-04 
2329.1466e-04  
2332.3769e-03  
2349.1483e-04  
2352.2907e-03  
2361.3941e-03  
2378.3881e-03  
2385.4514e-03  
239-9.4605e-03 
2401.2732e-02  
241-4.1104e-03 
2422.1410e-04  
2432.0567e-03  
244-3.8575e-03 
245-9.6323e-04 
246-1.0154e-02 
2471.2331e-02  
2481.0173e-03  
2495.9146e-03  
2508.2910e-03  
2511.8264e-03  
2529.9662e-04  
2536.0687e-03  
254-3.5217e-04 
2552.1466e-03  
2567.9888e-04  
257-4.6008e-03 
258-2.3287e-03 
259-2.0399e-03 
2602.2642e-03  
2611.5293e-03  
2627.0233e-03  
263-2.1854e-03 
2649.2400e-04  
2651.1752e-03  
266-8.1333e-03 
267-1.1179e-03 
2682.8470e-03  
269-5.2505e-03 
2701.2394e-03  
2711.0919e-03  
272-4.6985e-04 
273-1.9524e-04 
274-1.2734e-03 
275-7.9510e-03 
2761.0830e-03  
277-4.8479e-03 
278-3.6195e-03 
279-5.6026e-03 
280-2.0350e-03 
281-7.1354e-03 
2828.4198e-03  
283-6.2623e-04 
2846.7772e-03  
2859.4779e-03  
286-3.0788e-03 
2871.6038e-02  
2884.1066e-03  
2894.9188e-03  
2905.2893e-03  
2917.0818e-03  
292-5.9367e-03 
293-3.2585e-03 
294-9.1563e-04 
295-3.4351e-05 
2961.3232e-03  
297-6.1304e-04 
2983.0509e-04  
2991.4268e-03  
3006.2337e-04  
301-5.3178e-04 
3028.9976e-04  
3031.0107e-03  
3042.0296e-03  
305-3.1889e-04 
3063.4399e-04  
3074.6931e-04  
308-3.2185e-04 
3099.3094e-04  
310-6.1737e-04 
3111.4267e-03  
312-1.7476e-03 
313-1.6548e-04 
314-5.7310e-05 
315-3.3874e-03 
316-2.9057e-04 
317-1.5487e-03 
3185.6208e-04  
319-1.4211e-03 
3203.6087e-03  
321-1.5310e-03 
322-2.9289e-04 
3232.7002e-04  
3244.5060e-04  
325-2.0225e-03 
326-3.3107e-03 
327-1.7982e-04 
3285.4030e-04  
3291.5951e-03  
330-1.5722e-03 
331-5.0480e-03 
332-1.1060e-03 
3331.2715e-03  
3341.2163e-03  
3351.5918e-04  
336-2.6201e-03 
337-1.1474e-03 
338-1.1548e-03 
339-1.7195e-03 
340-2.7097e-03 
341-1.9655e-02 
3421.0788e-02  
3431.0642e-02  
3441.3223e-03  
345-1.4037e-03 
346-1.0280e-02 
3478.2445e-03  
348-1.8690e-03 
3491.0803e-03  
3509.7032e-04  
351-2.2247e-03 
352-2.0371e-04 
3533.7816e-03  
3543.0595e-04  
355-7.7395e-03 
356-2.7491e-03 
357-1.3610e-03 
358-7.5155e-03 
359-2.3079e-03 
3602.3178e-03  
361-4.3168e-04 
362-3.6824e-03 
3632.0674e-03  
3642.4918e-04  
365-1.1901e-04 
366-4.2254e-04 
3676.8542e-04  
3681.7647e-03  
369-4.2531e-04 
3701.8430e-03  
3712.5539e-04  
372-4.3274e-04 
373-8.8056e-04 
3748.5876e-04  
375-1.0169e-03 
376-2.2998e-03 
3777.4534e-03  
378-3.0023e-03 
379-2.8020e-03 
380-8.1798e-04 
381-2.7658e-03 
3823.0538e-04  
3836.1182e-04  
3841.9016e-03  
3851.4479e-03  
386-4.7517e-04 
3871.6111e-03  
3884.0914e-04  
3899.3012e-04  
390-1.8919e-03 
3912.5028e-04  
3929.3285e-04  
393-7.9085e-04 
394-9.2125e-04 
395-1.0575e-03 
396-3.7680e-04 
397-1.1461e-03 
398-1.5980e-05 
3992.3718e-03  
4006.3139e-04  
401-9.8968e-04 
4025.6606e-04  
403-4.6099e-04 
404-1.2208e-03 
4056.7297e-04  
406-5.6775e-04 
407-4.9162e-04 
4081.0780e-03  
409-8.0295e-04 
4101.9224e-03  
4111.4783e-03  
412-1.0554e-03 
413-5.8997e-05 
4141.4976e-03  
4151.1693e-03  
4164.2653e-04  
417-1.4981e-03 
4181.7541e-03  
419-8.7788e-04 
420-1.3694e-03 
421-7.7584e-05 
422-6.4213e-04 
4233.1805e-03  
424-2.5768e-03 
4253.5085e-04  
4261.0030e-03  
4273.3520e-03  
4281.3845e-05  
429-1.7441e-03 
4301.5837e-03  
431-2.9218e-04 
4321.0712e-03  
433-5.7066e-04 
4345.5663e-04  
4351.4158e-03  
436-1.2024e-03 
4373.1995e-04  
4381.4477e-03  
439-1.4073e-03 
4406.6617e-04  
4412.5002e-03  
442-2.4945e-04 
4432.2563e-04  
444-3.5688e-04 
445-1.6272e-03 
446-8.0318e-04 
447-9.1972e-04 
4483.6474e-03  
4491.4661e-03  
4501.0875e-03  
451-3.8079e-03 
452-1.0073e-02 
4534.0297e-03  
4547.0437e-03  
455-2.9412e-03 
4569.7429e-03  
457-1.9284e-03 
458-4.8614e-03 
4598.2924e-03  
4607.9957e-04  
461-4.3786e-03 
462-2.8032e-03 
463-6.3378e-03 
4643.1870e-03  
4651.2195e-04  
466-1.5822e-03 
467-2.7227e-03 
468-3.3421e-03 
469-3.3380e-03 
470-1.0337e-03 
4711.1456e-03  
4721.2550e-03  
4731.9351e-03  
4741.1372e-03  
4751.6045e-03  
4769.1681e-04  
4773.4117e-03  
4787.2731e-04  
4796.7723e-04  
4805.5282e-05  
4811.4239e-03  
4823.1509e-04  
4834.1369e-04  
4842.5410e-04  
485-9.0683e-04 
486-1.4402e-03 
487-1.6363e-03 
4881.8435e-03  
4893.6048e-03  
490-4.0420e-04 
4912.5492e-03  
492-1.2583e-03 
4932.0409e-03  
494-5.2739e-04 
4951.4252e-04  
4965.9766e-04  
4971.0280e-03  
498-1.9757e-05 
4994.1209e-04  
5001.5685e-05  
5012.9418e-04  
502-1.3402e-04 
503-9.9799e-05 
5042.6604e-04  
5054.7367e-04  
506-3.9326e-04 
5079.6879e-04  
5081.8384e-04  
5093.8267e-04  
5105.6010e-05  
511-1.9827e-04 
512-5.2675e-05 
513-5.8651e-04 
514-1.2276e-04 
5152.3542e-04  
516-6.2429e-04 
517-7.8122e-04 
5181.2853e-04  
519-3.7855e-04 
520-3.9458e-04 
5219.1524e-04  
522-9.2021e-04 
523-2.3808e-04 
524-4.2453e-07 
525-1.5319e-07 
526-3.8285e-07 
5278.3203e-08  
5285.2779e-06  
5294.7245e-08  
5306.3330e-08  
5311.2571e-07  
532-7.9331e-07 
533-3.2117e-06 
5341.4953e-07  
535-6.6245e-07 
536-1.0918e-06 
537-2.1095e-06 
5387.8066e-06  
5398.4372e-07  
540-1.9097e-06 
5411.6040e-07  
5421.9752e-06  
5436.7632e-06  
5445.5842e-07  
5454.1647e-07  
5461.2651e-06  
547-2.9319e-08 
548-5.3966e-06 
5494.5131e-07  
5504.3092e-07  
551-9.9964e-07 
5527.1285e-08  
5532.9515e-06  
5542.9699e-08  
5551.2461e-06  
5563.9501e-08  
5572.3918e-06  
5582.5128e-06  
5598.5308e-07  
5605.2804e-07  
561-1.4407e-06 
5621.9822e-06  
563-1.2743e-06 
564-6.8567e-07 
5656.9839e-07  
5662.1608e-06  
567-1.0653e-06 
568-2.5129e-06 
5695.2898e-07  
5705.5707e-07  
571-1.4999e-07 
5721.8376e-07  
5734.1707e-07  
574-1.7306e-07 
5751.1704e-06  
5761.3814e-06  
5772.8629e-06  
5789.0258e-06  
5795.2015e-07  
580-8.6029e-07 
5813.1168e-06  
5821.1830e-06  
5832.8107e-07  
5841.6269e-04  
5851.9790e-03  
5865.6041e-04  
587-2.6763e-03 
588-4.7339e-05 
5899.7271e-04  
5901.7109e-04  
591-1.4758e-03 
5926.9239e-04  
593-2.1082e-04 
594-2.8771e-03 
595-9.1178e-04 
5961.0713e-03  
5978.4850e-04  
598-5.8078e-04 
5991.0717e-03  
6001.0989e-03  
6014.1139e-04  
602-6.7940e-04 
6033.5187e-04  
6043.1310e-04  
6056.5467e-04  
6065.7383e-04  
6071.3687e-03  
6083.2285e-04  
6094.1548e-04  
6101.1093e-04  
6113.1341e-04  
6128.6298e-05  
6135.9496e-05  
6142.5272e-05  
6152.5659e-05  
6161.3769e-04  
6175.4450e-05  
6184.6298e-04  
6192.4874e-04  
6201.6983e-04  
6216.6867e-05  
6222.8517e-04  
6234.9461e-04  
624-1.3035e-04 
625-2.2265e-05 
626-1.5581e-04 
627-4.9263e-06 
628-1.4034e-04 
629-3.7797e-04 
630-1.3450e-04 
6312.3180e-05  
632-1.4521e-04 
6332.2297e-05  
634-3.1207e-04 
635-2.1025e-04 
636-4.3558e-04 
637-3.3091e-05 
638-2.4549e-04 
639-2.9597e-04 
6401.3818e-03  
6414.7660e-05  
642-2.7048e-04 
6435.0321e-04  
6449.8518e-04  
645-2.2984e-03 
646-1.0956e-03 
6474.2157e-04  
6489.1504e-05  
6492.9843e-04  
6508.5607e-04  
6511.4471e-04  
652-2.7416e-04 
653-1.8779e-04 
654-3.2399e-04 
655-5.4279e-04 
656-3.7378e-04 
657-6.2330e-04 
658-9.6162e-04 
6595.6612e-04  
660-3.3683e-04 
6616.8295e-05  
662-6.1210e-04 
6633.7894e-04  
664-3.5202e-05 
665-7.1335e-04 
6664.1815e-04  
6676.0089e-04  
6682.5425e-04  
6695.4940e-04  
6703.0532e-04  
6714.8433e-04  
672-1.5786e-04 
6731.1898e-04  
6741.0257e-04  
6753.6884e-04  
6763.9123e-04  
6771.1474e-04  
6782.8892e-05  
679-2.9721e-04 
680-3.6215e-04 
6811.5588e-04  
682-3.9422e-04 
6831.4858e-04  
6845.8704e-05  
6852.0117e-04  
686-1.3247e-04 
6872.9887e-05  
6882.7147e-05  
6891.5454e-04  
6902.4297e-04  
691-7.8660e-05 
692-3.5122e-04 
693-7.8099e-05 
6941.6671e-04  
695-1.3970e-04 
6961.2915e-04  
697-7.0783e-07 
698-1.5835e-06 
6992.1902e-05  
7002.6203e-05  
701-1.0075e-05 
7022.1885e-05  
703-1.2147e-05 
704-4.4061e-05 
705-3.6290e-05 
7068.6218e-06  
707-1.9368e-05 
7083.4305e-04  
7098.1736e-05  
7105.8107e-05  
711-1.3070e-05 
7123.6365e-05  
7132.2306e-04  
7147.3731e-05  
7158.6617e-06  
7165.4832e-05  
717-2.0755e-04 
718-2.3624e-04 
719-9.3988e-05 
7203.1194e-05  
721-1.8419e-05 
7223.7847e-05  
7235.1398e-05  
724-2.3386e-06 
725-1.4278e-04 
7265.6833e-05  
7271.3705e-05  
7289.0103e-05  
729-1.0859e-04 
730-1.1828e-04 
7312.5633e-05  
732-1.7990e-04 
733-2.2577e-04 
7344.8853e-05  
7356.6894e-05  
7363.3136e-05  
737-6.7962e-05 
738-8.2933e-05 
739-1.6396e-04 
7406.0625e-05  
741-5.7602e-06 
7427.3898e-07  
743-1.2083e-04 
7441.3166e-04  
745-4.7618e-05 
7461.0650e-04  
747-2.2812e-04 
7481.3915e-04  
7495.8495e-05  
7503.9186e-05  
7511.1512e-05  
752-2.5131e-05 
7531.1903e-04  
7544.7823e-05  
755-1.7779e-05 
7561.1018e-08  
757-6.3349e-10 
7583.3569e-10  
759-2.1814e-09 
760-3.1121e-09 
761-1.6948e-09 
762-6.6997e-09 
7631.3056e-09  
764-3.5091e-09 
7651.1148e-08  
7661.7344e-09  
767-2.1886e-09 
768-2.1539e-09 
7696.3252e-10  
7701.6595e-08  
7711.1665e-08  
7723.2951e-10  
773-7.2899e-09 
774-2.4322e-09 
7759.5691e-09  
776-1.0872e-09 
7773.3064e-09  
778-4.2513e-09 
7796.0284e-09  
780-3.6630e-09 
7815.1973e-10  
7824.1403e-09  
7838.7878e-10  
784-7.5175e-09 
785-1.0625e-08 
786-3.4337e-09 
7871.4112e-09  
7886.7948e-09  
7892.2916e-09  
790-8.6989e-09 
791-1.3599e-09 
792-1.6606e-09 
793-3.4411e-11 
794-1.6347e-09 
7951.2332e-08  
7962.8706e-09  
797-2.5721e-09 
7988.2489e-09  
799-4.7979e-09 
8006.3608e-09  
8018.3685e-11  
8022.9410e-10  
[...]
-1.55289772e-01
-7.57616750e-01
1.50674552e-03
-1.86665524e-03
8.98562102e-04
1.39561133e-04
-2.91239009e-04
-4.72992249e-05
3.60018991e-03
-1.77163444e-03
-8.67753419e-04
3.07393713e-03
-1.62727239e-02
-1.23352758e-03
4.31927356e-02
2.87234776e-02
7.59588603e-03
-1.56087397e-01
4.21575126e-02
3.24086758e-02
1.20646876e-05
9.57823727e-05
1.24734567e-04
7.07130956e-05
3.81630992e-05
5.05220887e-05
2.32034133e-04
6.76066722e-05
1.48493737e-04
3.10916972e-05
-8.12113889e-05
-3.92164323e-03
-4.40864392e-04
8.88675176e-03
2.89089627e-01
-1.30829197e-01
-1.53872073e-01
-8.67733006e-02
-3.60087167e-01
1.26987053e+00
3.93036463e-03
-4.98087821e-04
8.63082634e-03
-4.58774237e-04
5.06323909e-04
6.01813566e-04
-9.94662081e-03
-6.19096099e-04
1.04761222e-02
-5.36728863e-02
-1.55892533e-02
2.07779747e-02
2.76218217e-02
7.91051845e-02
-7.21815365e-02
4.49585742e-02
1.55304655e-01
6.93876115e-02
1.02946292e-04
2.90849074e-05
5.86911413e-05
-2.76690523e-05
4.57845079e-05
9.95762535e-05
1.70746480e-04
-1.69048846e-04
-3.23849040e-04
1.41072488e-04
-3.70319923e-04
-1.97593817e-02
-1.01167257e-02
-1.01959612e-01
-2.32836357e-01
4.38928522e-01
-2.64619024e-01
-1.06194846e+00
-1.80607334e+00
2.37210302e+00
-3.05485494e-03
5.33600396e-03
-1.28516839e-02
-3.12508417e-03
-9.13143985e-04
-3.00314935e-04
-1.37434694e-02
4.31793292e-04
3.94696209e-03
-2.88382789e-02
1.70058031e-02
2.27895729e-02
9.66666838e-02
-9.09421701e-02
-3.23457186e-02
-1.84559582e-01
-4.90727809e-02
-5.86784462e-02
-1.62086676e-04
-2.59990103e-04
1.36587095e-04
1.01457659e-04
3.20679358e-04
-1.17049408e-04
-1.98006399e-05
-5.45988053e-04
2.38157268e-04
-2.14450101e-04
-2.07788401e-04
-7.66283676e-03
-3.16077620e-03
-1.55813764e-04
3.22591817e-01
-2.62830622e-01
-2.01984692e-01
1.15285908e-01
-1.32334423e+00
-6.60393968e+00
-3.53265970e-03
-9.91664758e-03
3.91147620e-03
-1.29107395e-04
1.85604530e-04
1.44604894e-04
-5.21069877e-03
4.65693896e-03
3.94189928e-03
-3.74184199e-02
2.72016578e-02
4.38539135e-03
1.76411453e-01
2.38374437e-01
-7.00143600e-02
1.90078360e-01
3.12447267e-01
2.39300057e-01
-7.20886560e-05
2.13184554e-04
2.16616248e-04
1.06471041e-04
2.49696972e-04
-4.21963685e-04
3.98263714e-04
2.81322018e-04
2.11631138e-04
3.30061617e-04
-6.72888186e-04
-3.05645261e-02
-1.23025768e-02
-1.15309152e-01
-9.48741515e-02
-1.03788409e-01
1.64259352e-01
1.85657409e-02
2.96662915e+00
3.57135509e+00
3.74824331e-03
1.09292652e-02
-1.30301133e-02
1.08720053e-03
7.06747900e-04
2.38411271e-04
9.38883282e-05
-5.45546957e-03
3.06172200e-03
1.15140414e-01
-3.45901096e-02
-2.42067147e-02
1.42880325e-01
-1.17811010e-01
-1.45956661e-01
-1.67985795e-01
1.17656230e-01
-5.05874927e-02
3.35221794e-04
7.61761805e-05
1.99659251e-04
1.70104976e-04
-1.35086098e-04
6.83913891e-04
-1.83336274e-04
8.52973453e-04
-1.42912767e-04
3.68485014e-04
-3.01722459e-03
2.16904271e-02
8.77509587e-02
3.94398917e-01
3.37297224e-01
2.92742953e-01
-1.27225249e-04
-7.88035578e-04
1.36375494e-03
5.35981774e-04
4.93443973e-04
3.01287070e-04
-2.71379815e-03
1.90577248e-02
3.94696944e-02
1.95251855e-01
3.22858262e-01
-6.70599291e-01
-3.64567534e-04
1.14253893e-03
7.32054143e-05
-1.32787547e-03
-7.79727081e-04
3.07087482e-04
-2.84455515e-04
2.37013170e-02
9.40178536e-02
3.90393543e-01
4.24789699e-02
-3.09525216e-01
-2.83197290e-04
-4.55736089e-04
-1.07389982e-03
6.18444277e-04
1.31344040e-03
1.65473139e-03
2.11696544e-03
9.17918287e-03
8.72859119e-02
1.63781139e-01
-2.09760082e-01
3.72562054e-01
-5.39155523e-04
-2.20816967e-04
-9.08367410e-04
7.07078663e-05
-7.62338647e-04
-7.64988092e-04
-3.70569418e-03
9.09792651e-03
3.12223063e-02
-1.80867012e-01
4.57501794e-02
1.41718658e-01
1.04874607e-03
-6.15924471e-04
-6.70526335e-05
1.46816749e-03
-1.17006283e-03
-8.57080909e-05
-4.37441378e-03
5.93528193e-03
7.69539430e-02
3.94161884e-01
2.67869542e-01
3.24258750e-01
-5.76665911e-04
4.59966023e-04
1.48313745e-03
-1.18602239e-03
1.49344462e-03
3.97737045e-03
-3.64190425e-03
6.51848551e-03
6.99039814e-02
-5.72227944e-02
3.69804764e-01
5.24635672e-01
-1.89298476e-04
6.57771241e-04
5.25294381e-04
-8.84315704e-04
-1.73546454e-06
1.38454268e-03
-4.33620549e-03
2.75027788e-03
9.42153806e-02
1.57496847e-04
-9.42240445e-01
1.18704553e+00
-3.27797900e-04
-9.62755618e-04
4.04499202e-04
-8.92362939e-04
-2.44645644e-03
2.56161186e-03
1.64199927e-03
1.34555882e-02
1.56607093e-01
-1.95233969e-01
3.51322185e-02
8.27366181e-01
5.21843181e-04
6.05010030e-05
-3.85088214e-04
-1.34995090e-03
-2.80900285e-05
2.69272707e-04
-9.84381124e-03
-5.65927688e-03
1.98348915e-01
5.41860008e-02
-7.92572195e-01
3.66394632e-01
-3.90849075e-04
6.30724500e-04
2.73089652e-04
-1.09736474e-03
2.14096107e-03
9.93592446e-04
-2.56612029e-04
-5.00758792e-03
-9.02736889e-04
-5.27153060e-03
1.13124517e-04
-3.20369856e-04
5.64548241e-04
1.93292665e-06
-9.06150190e-06
1.55727269e-05
4.17395023e-05
-1.02538589e-04
1.81878245e-04
-8.63779073e-08
-4.16971286e-07
3.25030043e-07
1.11276518e-07
-1.21562442e-07
-5.15835744e-07
-2.46469187e-06
1.89836569e-06
6.23022546e-07
-7.31642671e-07
-1.53499736e-04
-2.98323873e-03
-5.27882610e-04
-3.15381949e-03
1.29853735e-04
3.30646136e-04
2.25306871e-04
2.90967591e-06
8.05956454e-06
6.19278557e-06
4.43935287e-05
1.10360202e-04
7.21893058e-05
1.13107186e-07
3.03360385e-07
-1.66236676e-08
1.35561943e-07
-1.28035686e-07
6.67001418e-07
1.79315617e-06
-1.43132130e-07
7.97430433e-07
-7.87297442e-07
-8.98012355e-05
-1.74103027e-03
-3.05858108e-04
-1.84043420e-03
2.45005847e-05
-3.09666576e-05
-2.53839090e-04
1.97922560e-06
2.96092569e-06
-2.71906549e-06
1.80456880e-06
-2.71486815e-05
-9.94932202e-05
-3.73897897e-08
1.97572112e-08
1.47437774e-07
-2.14331714e-08
-8.13243257e-09
-2.11946002e-07
1.79823141e-07
9.79557872e-07
-1.06317518e-07
-4.40050571e-08
-5.47668352e-05
-1.01488168e-03
-1.46106381e-04
-1.14294423e-03
5.63288761e-05
1.02586863e-04
-1.20849150e-04
2.63651180e-06
-3.89785522e-06
3.35836450e-06
1.30190364e-05
6.25413063e-05
-6.83127757e-05
4.35864744e-08
-3.16967374e-08
-1.81682291e-08
-7.69120029e-08
-2.00729043e-09
2.49449662e-07
-2.37712026e-07
-2.38717175e-08
-4.40308202e-07
-1.74436813e-08
-1.70651140e-04
-3.32726659e-03
-5.98424433e-04
-3.49398491e-03
2.88962393e-04
-2.79886698e-04
-1.96126113e-04
6.62555066e-06
-9.92500300e-06
-5.69277463e-06
9.81328652e-05
-8.00603897e-05
-6.16825013e-05
-2.93546898e-07
2.03221023e-07
-1.33913276e-07
-1.38876460e-07
-5.57852014e-08
-1.75032754e-06
1.23795829e-06
-7.72071052e-07
-8.43609679e-07
-3.34486755e-07
-2.07739568e-04
-4.06373023e-03
-7.39844756e-04
-4.24986849e-03
-3.14292818e-04
-3.97599741e-04
-1.43986725e-04
-3.44095524e-06
-6.22145877e-06
-3.13310145e-06
-1.22807751e-04
-1.47842552e-04
-4.94710302e-05
3.38315929e-07
1.35066776e-07
-2.35602955e-07
9.81424160e-08
-9.60099444e-08
1.92004885e-06
8.52485989e-07
-1.30125632e-06
6.21780037e-07
-5.43423948e-07
-4.50801416e-05
-8.95460776e-04
-1.71378015e-04
-9.10634427e-04
4.71258204e-05
9.30491082e-05
-6.43713655e-05
3.78296865e-06
3.94144158e-06
-2.56753952e-06
3.69503585e-06
2.24736943e-05
-1.68332811e-05
5.45754199e-08
-5.08868176e-08
-1.96851243e-08
-2.87897973e-08
-2.40583058e-08
3.54173711e-07
-3.42158841e-07
-1.33636614e-07
-1.95306373e-07
-1.40826253e-07
-1.00342386e-04
-1.99923561e-03
-3.86599619e-04
-2.03652648e-03
-1.54814336e-05
3.23378191e-04
-6.98017591e-05
4.23240180e-07
5.31206110e-06
-2.06131753e-06
-8.41614100e-06
1.18916674e-04
-2.16522504e-05
-1.32956512e-07
-5.42400503e-08
-1.54440776e-07
2.77283182e-08
-2.77978054e-07
-6.63428242e-07
-3.80714654e-07
-8.20452803e-07
1.98100292e-07
-1.61101631e-06
-1.26034491e-04
-2.49241688e-03
-4.70858010e-04
-2.56112315e-03
3.75959248e-04
1.01708054e-04
3.11129101e-05
4.20220237e-06
3.93156851e-06
-1.99633323e-06
1.46408890e-04
2.73622652e-05
2.23006747e-05
1.31742664e-07
4.64413720e-08
-1.89903069e-07
1.64462590e-07
3.43244305e-07
8.27326937e-07
3.06078669e-07
-1.09303485e-06
6.58604806e-07
1.80480941e-06
-2.33789877e-04
-4.53774523e-03
-8.00666220e-04
-4.81592453e-03
-4.97645010e-04
1.04512949e-04
3.19719164e-04
-9.60192651e-06
2.42245677e-06
6.10566452e-06
-1.79475651e-04
3.50606077e-05
1.15636977e-04
-1.19793883e-07
5.62371869e-08
-4.15679064e-08
-3.69082414e-07
3.01221106e-07
-7.08714336e-07
3.41712021e-07
-2.48176260e-07
-2.19473498e-06
1.77323166e-06
-5.32530499e-05
-1.02632686e-03
-1.76030265e-04
-1.09151264e-03
8.85686198e-05
5.62497583e-05
-1.12063496e-04
8.27538782e-07
2.95483268e-06
-3.84301421e-06
3.53321696e-05
1.14654963e-05
-3.18763793e-05
4.92411312e-08
-5.80761682e-08
3.56234848e-08
-2.74584179e-08
-4.47984770e-09
3.13690432e-07
-3.69265205e-07
2.37372568e-07
-3.06990709e-07
4.66417692e-08
-1.41272802e-04
-2.74662240e-03
-4.87529681e-04
-2.90074554e-03
-2.44279965e-04
5.50662924e-05
-2.68237999e-04
-3.66384177e-06
1.95465163e-06
-6.45071732e-06
-9.23808313e-05
1.53526765e-05
-9.03990263e-05
-4.88217424e-08
-4.27722289e-08
4.96219348e-08
2.46419654e-07
1.41187272e-07
-3.04600794e-07
-2.72932555e-07
3.30152644e-07
1.59910297e-06
8.58959572e-07
   *****

     End transition


 All requested transition properties have been computed


 Transition Properties  CPU 307.99 s  wall 122.22 s
 Total ccman2 time:   CPU 467135.45 s  wall 34092.31 s


 --------------------------------------------------------------

                    Orbital Energies (a.u.)
 --------------------------------------------------------------

 Alpha MOs
 -- Occupied --
-32.7957 -32.7957 -32.7954 -32.7953 -32.7952 -32.7951 -32.7950 -32.7949
-32.7947 -32.7942 -32.7942 -32.7939 -20.6118 -20.5929 -20.5921 -20.5752
-11.3776 -11.3581 -11.3405 -11.3222 -11.2991 -11.2924 -11.2918 -11.2762
-11.2524  -1.9412  -1.9411  -1.9409  -1.9408  -1.9407  -1.9406  -1.9405
 -1.9404  -1.9402  -1.9397  -1.9397  -1.9394  -1.4410  -1.4161  -1.4045
 -1.3845  -1.1557  -1.0773  -0.9978  -0.9713  -0.9451  -0.9140  -0.8538
 -0.8538  -0.8538  -0.8538  -0.8538  -0.8538  -0.8535  -0.8535  -0.8535
 -0.8534  -0.8534  -0.8534  -0.8533  -0.8533  -0.8533  -0.8532  -0.8532
 -0.8532  -0.8531  -0.8531  -0.8531  -0.8530  -0.8530  -0.8530  -0.8528
 -0.8528  -0.8528  -0.8523  -0.8523  -0.8523  -0.8523  -0.8523  -0.8523
 -0.8520  -0.8520  -0.8520  -0.8370  -0.8133  -0.7469  -0.7102  -0.7069
 -0.6700  -0.6594  -0.6474  -0.6367  -0.6310  -0.6161  -0.6058  -0.5893
 -0.5723  -0.5600  -0.5584  -0.5452  -0.5381  -0.5221  -0.5139  -0.4732
 -0.4440  -0.4368  -0.3979  -0.3489
 -- Virtual --
  0.0005   0.0012   0.0013   0.0016   0.0021   0.0022   0.0025   0.0031
  0.0039   0.0043   0.0045   0.0057   0.0060   0.0064   0.0064   0.0068
  0.0074   0.0080   0.0087   0.0091   0.0100   0.0102   0.0111   0.0122
  0.0127   0.0130   0.0134   0.0137   0.0149   0.0160   0.0168   0.0177
  0.0181   0.0185   0.0194   0.0198   0.0211   0.0218   0.0220   0.0225
  0.0235   0.0236   0.0240   0.0245   0.0250   0.0254   0.0260   0.0264
  0.0269   0.0276   0.0287   0.0299   0.0313   0.0333   0.0349   0.0365
  0.0375   0.0398   0.0400   0.0400   0.0410   0.0420   0.0430   0.0435
  0.0450   0.0459   0.0465   0.0468   0.0488   0.0492   0.0504   0.0515
  0.0524   0.0540   0.0544   0.0556   0.0568   0.0579   0.0583   0.0594
  0.0599   0.0616   0.0628   0.0638   0.0640   0.0642   0.0665   0.0677
  0.0684   0.0717   0.0735   0.0750   0.0770   0.0796   0.0809   0.0823
  0.0837   0.0847   0.0863   0.0872   0.0889   0.0898   0.0922   0.0947
  0.0972   0.0987   0.1011   0.1035   0.1049   0.1069   0.1072   0.1086
  0.1113   0.1121   0.1144   0.1176   0.1183   0.1209   0.1222   0.1243
  0.1256   0.1269   0.1289   0.1293   0.1305   0.1322   0.1328   0.1340
  0.1363   0.1367   0.1412   0.1448   0.1457   0.1474   0.1481   0.1517
  0.1530   0.1540   0.1581   0.1638   0.1665   0.1678   0.1716   0.1732
  0.1774   0.1785   0.1791   0.1830   0.1852   0.1861   0.1880   0.1924
  0.1951   0.1993   0.2041   0.2043   0.2065   0.2095   0.2119   0.2152
  0.2191   0.2221   0.2275   0.2310   0.2316   0.2371   0.2406   0.2416
  0.2429   0.2475   0.2518   0.2555   0.2625   0.2648   0.2713   0.2733
  0.2754   0.2756   0.2789   0.2828   0.2857   0.2863   0.2892   0.2899
  0.2905   0.2909   0.2912   0.2913   0.2916   0.2918   0.2920   0.2922
  0.2924   0.2924   0.2925   0.2925   0.2926   0.2927   0.2928   0.2929
  0.2930   0.2930   0.2931   0.2931   0.2932   0.2933   0.2933   0.2934
  0.2935   0.2935   0.2936   0.2937   0.2937   0.2939   0.2940   0.2941
  0.2942   0.2944   0.2946   0.2947   0.2948   0.2954   0.2956   0.2957
  0.2960   0.2961   0.2964   0.2968   0.2972   0.2982   0.2988   0.2998
  0.3010   0.3041   0.3085   0.3135   0.3167   0.3215   0.3271   0.3309
  0.3366   0.3392   0.3458   0.3523   0.3540   0.3626   0.3664   0.3741
  0.3763   0.3788   0.3836   0.3896   0.3918   0.3931   0.3990   0.4015
  0.4082   0.4105   0.4218   0.4293   0.4425   0.4435   0.4477   0.4505
  0.4569   0.4635   0.4682   0.4698   0.4761   0.4806   0.4834   0.4868
  0.4909   0.4988   0.5053   0.5088   0.5140   0.5221   0.5231   0.5275
  0.5311   0.5413   0.5458   0.5490   0.5562   0.5596   0.5673   0.5714
  0.5759   0.5820   0.5855   0.5923   0.5973   0.6096   0.6109   0.6232
  0.6287   0.6321   0.6367   0.6433   0.6492   0.6535   0.6665   0.6678
  0.6746   0.6795   0.6805   0.6809   0.6900   0.6956   0.7040   0.7060
  0.7152   0.7155   0.7208   0.7250   0.7309   0.7392   0.7450   0.7528
  0.7551   0.7596   0.7680   0.7728   0.7772   0.7867   0.7937   0.8027
  0.8075   0.8134   0.8220   0.8228   0.8317   0.8384   0.8451   0.8566
  0.8590   0.8724   0.8886   0.8917   0.8940   0.9013   0.9057   0.9140
  0.9235   0.9431   0.9458   0.9494   0.9653   0.9737   0.9797   0.9916
  1.0097   1.0132   1.0247   1.0298   1.0449   1.0562   1.0709   1.0834
  1.0914   1.0990   1.1107   1.1174   1.1271   1.1398   1.1537   1.1644
  1.1735   1.1817   1.1930   1.2052   1.2150   1.2305   1.2443   1.2539
  1.2716   1.2768   1.2892   1.2947   1.3181   1.3267   1.3568   1.3630
  1.3755   1.3890   1.4095   1.4163   1.4287   1.4392   1.4481   1.4675
  1.4773   1.4886   1.5004   1.5084   1.5255   1.5355   1.5536   1.5653
  1.5678   1.5941   1.6075   1.6107   1.6200   1.6594   1.6608   1.6701
  1.6742   1.6841   1.6986   1.7059   1.7116   1.7281   1.7335   1.7540
  1.7569   1.7569   1.7569   1.7569   1.7569   1.7570   1.7570   1.7570
  1.7570   1.7570   1.7572   1.7572   1.7572   1.7572   1.7572   1.7573
  1.7573   1.7573   1.7573   1.7574   1.7574   1.7574   1.7574   1.7574
  1.7574   1.7575   1.7575   1.7575   1.7575   1.7576   1.7576   1.7576
  1.7576   1.7576   1.7576   1.7578   1.7578   1.7578   1.7578   1.7578
  1.7579   1.7579   1.7579   1.7579   1.7579   1.7584   1.7584   1.7584
  1.7584   1.7584   1.7584   1.7584   1.7584   1.7584   1.7584   1.7587
  1.7587   1.7587   1.7587   1.7587   1.7607   1.7689   1.7725   1.7810
  1.7944   1.7974   1.8126   1.8207   1.8422   1.8546   1.8669   1.8864
  1.8957   1.9011   1.9182   1.9269   1.9341   1.9459   1.9470   1.9606
  1.9606   1.9607   1.9608   1.9608   1.9610   1.9610   1.9611   1.9612
  1.9612   1.9613   1.9613   1.9613   1.9615   1.9615   1.9615   1.9616
  1.9617   1.9617   1.9617   1.9618   1.9621   1.9621   1.9622   1.9622
  1.9623   1.9624   1.9625   1.9625   1.9626   1.9626   1.9627   1.9629
  1.9631   1.9633   1.9635   1.9639   1.9710   1.9767   1.9819   1.9942
  2.0206   2.0348   2.0487   2.0633   2.0748   2.0877   2.1060   2.1158
  2.1477   2.1561   2.1581   2.1670   2.1841   2.1970   2.2078   2.2134
  2.2298   2.2439   2.2509   2.2641   2.2707   2.2727   2.2818   2.2925
  2.3064   2.3107   2.3200   2.3344   2.3586   2.3783   2.3845   2.3947
  2.4193   2.4368   2.4469   2.4609   2.4995   2.5061   2.5216   2.5265
  2.5410   2.5461   2.5758   2.5823   2.6074   2.6277   2.6640   2.6731
  2.6932   2.7191   2.7316   2.7442   2.7446   2.7457   2.7465   2.7466
  2.7468   2.7469   2.7470   2.7473   2.7476   2.7483   2.7494   2.7515
  2.7610   2.7933   2.8169   2.8323   2.8468   2.8896   2.9254   2.9371
  2.9624   2.9689   3.0083   3.0369   3.0478   3.0665   3.0843   3.1426
  3.1630   3.1941   3.3237   3.3491   3.4046   3.4385   3.4801   3.5392
  3.6546   3.7108   3.7633   3.8118   3.8193   3.8339   3.8613   3.8620
  3.8825   3.8978   3.9415   3.9624   3.9938   4.0264   4.0436   4.0757
  4.0894   4.1173   4.1635   4.1879   4.1906   4.2439   4.2856   4.7660
  6.3717   6.3717   6.3717   6.3717   6.3717   6.3718   6.3718   6.3718
  6.3718   6.3718   6.3720   6.3720   6.3720   6.3720   6.3720   6.3721
  6.3721   6.3721   6.3721   6.3721   6.3722   6.3722   6.3722   6.3722
  6.3722   6.3723   6.3723   6.3723   6.3723   6.3723   6.3724   6.3724
  6.3724   6.3724   6.3724   6.3725   6.3725   6.3725   6.3725   6.3725
  6.3727   6.3727   6.3727   6.3727   6.3727   6.3732   6.3732   6.3732
  6.3732   6.3732   6.3732   6.3732   6.3732   6.3732   6.3732   6.3735
  6.3735   6.3735   6.3735   6.3735
 --------------------------------------------------------------

          Ground-State Mulliken Net Atomic Charges

     Atom                 Charge (a.u.)
  ----------------------------------------
      1 C                     1.509874
      2 C                     0.190535
      3 C                     0.551150
      4 C                     2.192919
      5 C                    -0.283241
      6 C                     0.565043
      7 O                    -0.893972
      8 C                     0.598155
      9 O                    -1.062942
     10 O                    -1.190358
     11 C                     0.891947
     12 O                    -1.135732
     13 C                     0.911477
     14 H                    -0.018553
     15 H                    -0.307108
     16 H                     0.041087
     17 H                    -0.243713
     18 H                    -0.497648
     19 H                    -0.093213
     20 H                    -0.205297
     21 H                    -0.276775
     22 H                    -0.353644
     23 H                    -0.890131
     24 Ne                    0.000011
     25 Ne                    0.000007
     26 Ne                    0.000011
     27 Ne                    0.000008
     28 Ne                    0.000017
     29 Ne                    0.000013
     30 Ne                    0.000014
     31 Ne                    0.000013
     32 Ne                    0.000010
     33 Ne                    0.000013
     34 Ne                    0.000012
     35 Ne                    0.000013
  ----------------------------------------
  Sum of atomic charges =     0.000000

 -----------------------------------------------------------------
                    Cartesian Multipole Moments
 -----------------------------------------------------------------
    Charge (ESU x 10^10)
                -0.0000
    Dipole Moment (Debye)
         X      -1.6743      Y      -2.0071      Z       2.2029
       Tot       3.4183
    Quadrupole Moments (Debye-Ang)
        XX    -123.2671     XY     -11.5981     YY    -132.0143
        XZ       4.0367     YZ      -0.8760     ZZ    -126.9017
    Octopole Moments (Debye-Ang^2)
       XXX      21.0172    XXY       9.3762    XYY      -8.4652
       YYY     -55.9243    XXZ      12.8878    XYZ       0.3369
       YYZ       4.1112    XZZ       2.1506    YZZ      -3.2668
       ZZZ      -3.1083
    Hexadecapole Moments (Debye-Ang^3)
      XXXX  -42245.1570   XXXY     -32.0252   XXYY  -14094.6214
      XYYY     -82.5966   YYYY  -42030.4817   XXXZ      22.4920
      XXYZ       5.2398   XYYZ       3.3552   YYYZ      -0.0924
      XXZZ  -13870.9967   XYZZ      13.6009   YYZZ  -13812.2345
      XZZZ      -1.7508   YZZZ      -1.2797   ZZZZ  -40848.2496
 -----------------------------------------------------------------
 Total job time:  35629.67s(wall), 483644.70s(cpu) 
 Sat May 10 00:30:42 2025

        *************************************************************
        *                                                           *
        *  Thank you very much for using Q-Chem.  Have a nice day.  *
        *                                                           *
        *************************************************************


