                  Welcome to Q-Chem
     A Quantum Leap Into The Future Of Chemistry


 Q-Chem 6.2 (devel), Q-Chem, Inc., Pleasanton, CA (2024)

 E. Epifanovsky,  A. T. B. Gilbert,  Xintian Feng,  Joonho Lee,  Yuezhi Mao,  
 N. Mardirossian,  P. Pokhilko,  A. White,  M. Wormit,  M. P. Coons,  
 A. L. Dempwolff,  Zhengting Gan,  D. Hait,  P. R. Horn,  L. D. Jacobson,  
 I. Kaliman,  J. Kussmann,  A. W. Lange,  Ka Un Lao,  D. S. Levine,  Jie Liu,  
 S. C. McKenzie,  A. F. Morrison,  K. D. Nanda,  F. Plasser,  D. R. Rehn,  
 M. L. Vidal,  Zhi-Qiang You,  Ying Zhu,  Huseyin Aksu,  B. Alam,  
 B. Albrecht,  A. Aldossary,  E. Alguire,  J. H. Andersen,  
 J. E. Arias-Martinez,  V. Athavale,  D. Barton,  K. Begam,  A. Behn,  
 N. Bellonzi,  Y. A. Bernard,  E. J. Berquist,  H. Burton,  A. Carreras,  
 K. Carter-Fenk,  Mathew Chow,  Romit Chakraborty,  Chandrima Chakravarty,  
 Junhan Chen,  A. D. Chien,  K. D. Closser,  V. Cofer-Shabica,  L. Cunha,  
 S. Dasgupta,  Jia Deng,  Joseph Dickinson,  M. de Wergifosse,  
 M. Diedenhofen,  Hainam Do,  Wenjie Dou,  S. Ehlert,  Po-Tung Fang,  
 S. Fatehi,  Qingguo Feng,  Jonathan Fetherolf,  T. Friedhoff,  
 Thomas Froitzheim,  Sarai Folkestad,  B. Ganoe,  J. Gayvert,  Qinghui Ge,  
 G. Gidofalvi,  M. Gimferrer,  M. Goldey,  Montgomery Gray,  J. Gomes,  
 C. Gonzalez-Espinoza,  S. Gulania,  A. Gunina,  J. A. Gyamfi,  
 M. W. D. Hanson-Heine,  P. H. P. Harbach,  A. W. Hauser,  M. F. Herbst,  
 M. Hernandez Vera,  M. Hodecker,  Z. C. Holden,  S. Houck,  Xunkun Huang,  
 Kerwin Hui,  B. C. Huynh,  K. Ikeda,  M. Ivanov,  Nayanthara K. Jayadev,  
 Hyunjun Ji,  Zuxin Jin,  Hanjie Jiang,  Subrata Jana,  B. Kaduk,  
 S. Kaehler,  R. Kang,  K. Khistyaev,  Jaehoon Kim,  Yongbin Kim,  
 P. Klunzinger,  Z. Koczor-Benda,  Joong Hoon Koh,  D. Kosenkov,  
 Saikiran Kotaru,  L. Koulias,  T. Kowalczyk,  C. M. Krauter,  K. Kue,  
 A. Kunitsa,  T. Kus,  A. Landau,  K. V. Lawler,  D. Lefrancois,  S. Lehtola,  
 Rain Li,  Shaozhi Li,  Tao E. Li,  Yi-Pei Li,  Jiashu Liang,  M. Liebenthal,  
 Hung-Hsuan Lin,  You-Sheng Lin,  Fenglai Liu,  Kuan-Yu Liu,  Xiao Liu,  
 M. Loipersberger,  A. Luenser,  C. Malbon,  Aniket Mandal,  Manisha,  
 A. Manjanath,  P. Manohar,  E. Mansoor,  S. F. Manzer,  Shan-Ping Mao,  
 A. V. Marenich,  T. Markovich,  S. Mason,  F. Matz,  S. A. Maurer,  
 Samuel May,  Alexandra McIsaac,  P. F. McLaughlin,  M. F. S. J. Menger,  
 J.-M. Mewes,  S. A. Mewes,  P. Morgante,  Mohammad Mostafanejad,  
 Madhubani Mukherjee,  J. W. Mullinax,  Quyen Nguyen,  Avik Kumar Ojha,  
 K. J. Oosterbaan,  Eno Paenurk,  Xiaoliang Pan,  G. Paran,  V. Parravicini,  
 Alexander C. Paul,  Suranjan K. Paul,  F. Pavosevic,  Zheng Pei,  S. Prager,  
 E. I. Proynov,  E. Ramos,  B. Rana,  A. E. Rask,  A. Rettig,  R. M. Richard,  
 F. Rob,  E. Rossomme,  T. Scheele,  M. Scheurer,  M. Schneider,  
 P. E. Schneider,  Tim K. Schramm,  N. Sergueev,  S. M. Sharada,  
 Hengyuan Shen,  W. Skomorowski,  D. W. Small,  C. J. Stein,  
 Alistair J. Sterling,  Yingli Su,  Yu-Chuan Su,  E. J. Sundstrom,  
 J. Talbot,  Zhen Tao,  J. Thirman,  Hung-Yi Tsai,  T. Tsuchimochi,  
 N. M. Tubman,  C. Utku,  S. P. Veccham,  O. Vydrov,  Rahel Weiss,  
 J. Wenzel,  Jonathan Wong,  J. Witte,  H. Wu,  Yanze Wu,  A. Yamada,  
 Chou-Hsun Yang,  Kun Yao,  S. Yeganeh,  S. R. Yost,  Qi Yu,  A. Zech,  
 F. Zeller,  Chongxiao Zhao,  Igor Ying Zhang,  Xing Zhang,  Yu Zhang,  
 D. Zuev,  A. Aspuru-Guzik,  A. T. Bell,  N. A. Besley,  K. B. Bravaya,  
 B. R. Brooks,  D. Casanova,  Jeng-Da Chai,  Hsing-Ta Chen,  S. Coriani,  
 C. J. Cramer,  A. E. DePrince, III,  R. A. DiStasio Jr.,  A. Dreuw,  
 B. D. Dunietz,  T. R. Furlani,  W. A. Goddard III,  S. Grimme,  
 S. Hammes-Schiffer,  T. Head-Gordon,  W. J. Hehre,  Chao-Ping Hsu,  
 T.-C. Jagau,  Yousung Jung,  A. Klamt,  Jing Kong,  D. S. Lambrecht,  
 Xiangyuan Li,  WanZhen Liang,  N. J. Mayhall,  C. W. McCurdy,  J. B. Neaton,  
 T. Neudecker,  C. Ochsenfeld,  J. A. Parkhill,  R. Peverati,  
 V. A. Rassolov,  Haisheng Ren,  Yihan Shao,  L. V. Slipchenko,  
 R. P. Steele,  J. E. Subotnik,  A. J. W. Thom,  A. Tkatchenko,  
 D. G. Truhlar,  T. Van Voorhis,  Fan Wang,  T. A. Wesolowski,  K. B. Whaley,  
 H. L. Woodcock III,  P. M. Zimmerman,  S. Faraji,  P. M. W. Gill,  
 M. Head-Gordon,  J. M. Herbert,  A. I. Krylov

 Contributors to earlier versions of Q-Chem not listed above: 
 R. D. Adamson,  B. Austin,  R. Baer,  J. Baker,  G. J. O. Beran,  
 K. Brandhorst,  S. T. Brown,  E. F. C. Byrd,  Arup K. Chakraborty,  
 G. K. L. Chan,  Chun-Min Chang,  Yunqing Chen,  C.-L. Cheng,  
 Siu Hung Chien,  D. M. Chipman,  D. L. Crittenden,  H. Dachsel,  
 R. J. Doerksen,  A. D. Dutoi,  R. G. Edgar,  J. Fosso-Tande,  
 L. Fusti-Molnar,  D. Ghosh,  A. Ghysels,  A. Golubeva-Zadorozhnaya,  
 J. Gonthier,  M. S. Gordon,  S. R. Gwaltney,  G. Hawkins,  J. E. Herr,  
 A. Heyden,  S. Hirata,  E. G. Hohenstein,  G. Kedziora,  F. J. Keil,  
 C. Kelley,  Jihan Kim,  R. A. King,  R. Z. Khaliullin,  P. P. Korambath,  
 W. Kurlancheek,  A. Laurent,  A. M. Lee,  M. S. Lee,  S. V. Levchenko,  
 Ching Yeh Lin,  D. Liotard,  E. Livshits,  R. C. Lochan,  I. Lotan,  
 L. A. Martinez-Martinez,  P. E. Maslen,  N. Nair,  D. P. O'Neill,  
 D. Neuhauser,  E. Neuscamman,  C. M. Oana,  R. Olivares-Amaya,  R. Olson,  
 T. M. Perrine,  B. Peters,  P. A. Pieniazek,  A. Prociuk,  Y. M. Rhee,  
 J. Ritchie,  M. A. Rohrdanz,  E. Rosta,  N. J. Russ,  H. F. Schaefer III,  
 M. W. Schmidt,  N. E. Schultz,  S. Sharma,  N. Shenvi,  C. D. Sherrill,  
 A. C. Simmonett,  A. Sodt,  T. Stein,  D. Stuck,  K. S. Thanthiriwatte,  
 V. Vanovschi,  L. Vogt,  Tao Wang,  A. Warshel,  M. A. Watson,  
 C. F. Williams,  Q. Wu,  X. Xu,  Jun Yang,  W. Zhang,  Yan Zhao

   Please cite Q-Chem as follows:
  "Software for the frontiers of quantum chemistry:
   An overview of developments in the Q-Chem 5 package"
   J. Chem. Phys. 155, 084801 (2021)
   https://doi.org/10.1063/5.0055522 (open access)

 Q-Chem 6.2.1 for Intel X86 EM64T Linux

 Parts of Q-Chem use Armadillo 9.900.5 (Nocturnal Misbehaviour).
 http://arma.sourceforge.net/

 Q-Chem begins on Wed May  7 11:51:45 2025  

 Host: r33c22n3
0

     Scratch files written to /scratch/leuven/372/vsc37243/qchem496059//
 Processing $rem in /data/leuven/372/vsc37243/qchem-dyson-EA-NoL/config/preferences:
 Processing $rem in /user/leuven/372/vsc37243/.qchemrc:

 Checking the input file for inconsistencies... 	...done.

--------------------------------------------------------------
User input:
--------------------------------------------------------------
$molecule
0 1
C 0.000000 0.000000 0.000000
C -0.746907 -1.288750 0.044623
C 0.021745 -2.569166 -0.000000
C 1.366152 -2.533838 0.002684
C 2.127142 -1.266540 0.000000
C 1.367901 0.000000 0.029472
O -1.974175 -1.313865 0.146738
C -0.788159 -3.829555 -0.019921
O 3.357976 -1.272804 -0.063246
O 2.088121 1.150859 0.124924
C 2.246402 1.877060 -1.113299
O -0.626223 1.195560 0.031403
C -1.996547 1.359569 -0.412331
H -1.445850 -3.850126 -0.896106
H -0.136224 -4.705935 -0.039243
H -1.441762 -3.880706 0.857377
H -2.694228 1.023065 0.353957
H -2.089833 2.433790 -0.580829
H -2.174155 0.811865 -1.340716
H 2.808696 1.269546 -1.830707
H 1.269558 2.153446 -1.524746
H 2.812735 2.773212 -0.858303
H 1.968018 -3.439281 -0.008013
O -5.792700 -1.286042 -4.703559
H -5.741397 -1.286386 -3.740064
H -4.860542 -1.285212 -4.952625
$end

$rem
   CCMAN2                       1
   MEM_TOTAL                    120000
   CC_MEMORY			115000
   MEM_STATIC                   2000
   METHOD                       cc2
   BASIS                        gen
   PURECART                     11
   AUX_BASIS                    rimp2-aug-cc-pVDZ
   N_FROZEN_CORE                fc
   EA_STATES                    [2]
   SCF_CONVERGENCE              10
   MAX_SCF_CYCLES               200
   CC_CONVERGENCE               8
   EOM_DAVIDSON_CONVERGENCE     8
   CC_TRANS_PROP		TRUE
   CC_DO_DYSON			TRUE
   CC_EOM_PROP			TRUE
   !PRINT_ORBITALS               TRUE
$end

$basis
H     0
S   4   1.00
      1.301000D+01           1.968500D-02
      1.962000D+00           1.379770D-01
      4.446000D-01           4.781480D-01
      1.220000D-01           5.012400D-01
S   1   1.00
      1.220000D-01           1.000000D+00
S   1   1.00
      0.0297400              1.0000000
S   1   1.00
      0.01487              1.0000000
S   1   1.00
      0.007435              1.0000000
S   1   1.00
      0.0037175              1.0000000
P   1   1.00
      7.270000D-01           1.0000000
P   1   1.00
      0.1410000              1.0000000
****
C     0
S   9   1.00
      6.665000D+03           6.920000D-04
      1.000000D+03           5.329000D-03
      2.280000D+02           2.707700D-02
      6.471000D+01           1.017180D-01
      2.106000D+01           2.747400D-01
      7.495000D+00           4.485640D-01
      2.797000D+00           2.850740D-01
      5.215000D-01           1.520400D-02
      1.596000D-01          -3.191000D-03
S   9   1.00
      6.665000D+03          -1.460000D-04
      1.000000D+03          -1.154000D-03
      2.280000D+02          -5.725000D-03
      6.471000D+01          -2.331200D-02
      2.106000D+01          -6.395500D-02
      7.495000D+00          -1.499810D-01
      2.797000D+00          -1.272620D-01
      5.215000D-01           5.445290D-01
      1.596000D-01           5.804960D-01
S   1   1.00
      1.596000D-01           1.000000D+00
S   1   1.00
      0.0469000              1.0000000
S   1   1.00
      0.02345              1.0000000
S   1   1.00
      0.011725              1.0000000
S   1   1.00
      0.0058625              1.0000000
S   1   1.00
      0.00293125              1.0000000
S   1   1.00
      0.00146562              1.0000000
S   1   1.00
      0.00073281              1.0000000
P   4   1.00
      9.439000D+00           3.810900D-02
      2.002000D+00           2.094800D-01
      5.456000D-01           5.085570D-01
      1.517000D-01           4.688420D-01
P   1   1.00
      1.517000D-01           1.000000D+00
P   1   1.00
      0.0404100              1.0000000
P   1   1.00
      0.020205              1.0000000
P   1   1.00
      0.0101025              1.0000000
P   1   1.00
      0.00505125              1.0000000
D   1   1.00
      5.500000D-01           1.0000000
D   1   1.00
      0.1510000              1.0000000
****
N     0
S   9   1.00
      9.046000D+03           7.000000D-04
      1.357000D+03           5.389000D-03
      3.093000D+02           2.740600D-02
      8.773000D+01           1.032070D-01
      2.856000D+01           2.787230D-01
      1.021000D+01           4.485400D-01
      3.838000D+00           2.782380D-01
      7.466000D-01           1.544000D-02
      2.248000D-01          -2.864000D-03
S   9   1.00
      9.046000D+03          -1.530000D-04
      1.357000D+03          -1.208000D-03
      3.093000D+02          -5.992000D-03
      8.773000D+01          -2.454400D-02
      2.856000D+01          -6.745900D-02
      1.021000D+01          -1.580780D-01
      3.838000D+00          -1.218310D-01
      7.466000D-01           5.490030D-01
      2.248000D-01           5.788150D-01
S   1   1.00
      2.248000D-01           1.000000D+00
S   1   1.00
      0.0612400              1.0000000
S   1   1.00
      0.03062              1.0000000
S   1   1.00
      0.01531              1.0000000
S   1   1.00
      0.007655              1.0000000
S   1   1.00
      0.0038275              1.0000000
S   1   1.00
      0.00191375              1.0000000
S   1   1.00
      0.000956875              1.0000000
P   4   1.00
      1.355000D+01           3.991900D-02
      2.917000D+00           2.171690D-01
      7.973000D-01           5.103190D-01
      2.185000D-01           4.622140D-01
P   1   1.00
      2.185000D-01           1.000000D+00
P   1   1.00
      0.0561100              1.0000000
P   1   1.00
      0.028055              1.0000000
P   1   1.00
      0.0140275              1.0000000
P   1   1.00
      0.00701375              1.0000000
D   1   1.00
      8.170000D-01           1.0000000
D   1   1.00
      0.2300000              1.0000000
****
O     0
S   9   1.00
      1.172000D+04           7.100000D-04
      1.759000D+03           5.470000D-03
      4.008000D+02           2.783700D-02
      1.137000D+02           1.048000D-01
      3.703000D+01           2.830620D-01
      1.327000D+01           4.487190D-01
      5.025000D+00           2.709520D-01
      1.013000D+00           1.545800D-02
      3.023000D-01          -2.585000D-03
S   9   1.00
      1.172000D+04          -1.600000D-04
      1.759000D+03          -1.263000D-03
      4.008000D+02          -6.267000D-03
      1.137000D+02          -2.571600D-02
      3.703000D+01          -7.092400D-02
      1.327000D+01          -1.654110D-01
      5.025000D+00          -1.169550D-01
      1.013000D+00           5.573680D-01
      3.023000D-01           5.727590D-01
S   1   1.00
      3.023000D-01           1.000000D+00
S   1   1.00
      0.0789600              1.0000000
S   1   1.00
      0.03948              1.0000000
S   1   1.00
      0.01974              1.0000000
S   1   1.00
      0.00987              1.0000000
S   1   1.00
      0.004935              1.0000000
S   1   1.00
      0.0024675              1.0000000
S   1   1.00
      0.00123375              1.0000000
P   4   1.00
      1.770000D+01           4.301800D-02
      3.854000D+00           2.289130D-01
      1.046000D+00           5.087280D-01
      2.753000D-01           4.605310D-01
P   1   1.00
      2.753000D-01           1.000000D+00
P   1   1.00
      0.0685600              1.0000000
P   1   1.00
      0.03428              1.0000000
P   1   1.00
      0.01714              1.0000000
P   1   1.00
      0.00857              1.0000000
D   1   1.00
      1.185000D+00           1.0000000
D   1   1.00
      0.3320000              1.0000000
****
S     0
S   12   1.00
      1.108000D+05           2.476350D-04
      1.661000D+04           1.920260D-03
      3.781000D+03           9.961920D-03
      1.071000D+03           4.029750D-02
      3.498000D+02           1.286040D-01
      1.263000D+02           3.034800D-01
      4.926000D+01           4.214320D-01
      2.016000D+01           2.307810D-01
      5.720000D+00           1.789710D-02
      2.182000D+00          -2.975160D-03
      4.327000D-01           8.495220D-04
      1.570000D-01          -3.679360D-04
S   12   1.00
      1.108000D+05          -6.870390D-05
      1.661000D+04          -5.276810D-04
      3.781000D+03          -2.796710D-03
      1.071000D+03          -1.126510D-02
      3.498000D+02          -3.888340D-02
      1.263000D+02          -9.950250D-02
      4.926000D+01          -1.997400D-01
      2.016000D+01          -1.233600D-01
      5.720000D+00           5.131940D-01
      2.182000D+00           6.071200D-01
      4.327000D-01           3.967530D-02
      1.570000D-01          -9.468640D-03
S   12   1.00
      1.108000D+05           1.990770D-05
      1.661000D+04           1.534830D-04
      3.781000D+03           8.095030D-04
      1.071000D+03           3.289740D-03
      3.498000D+02           1.129670D-02
      1.263000D+02           2.963850D-02
      4.926000D+01           5.998510D-02
      2.016000D+01           4.132480D-02
      5.720000D+00          -2.074740D-01
      2.182000D+00          -3.928890D-01
      4.327000D-01           6.328400D-01
      1.570000D-01           5.569240D-01
S   1   1.00
      1.570000D-01           1.000000D+00
S   1   1.00
      0.0507000              1.0000000
S   1   1.00
      0.02535              1.0000000
S   1   1.00
      0.012675              1.0000000
S   1   1.00
      0.0063375              1.0000000
S   1   1.00
      0.00316875              1.0000000
S   1   1.00
      0.00158438              1.0000000
S   1   1.00
      0.00079219              1.0000000
P   8   1.00
      3.997000D+02           4.475410D-03
      9.419000D+01           3.417080D-02
      2.975000D+01           1.442500D-01
      1.077000D+01           3.539280D-01
      4.119000D+00           4.590850D-01
      1.625000D+00           2.063830D-01
      4.726000D-01           1.021410D-02
      1.407000D-01          -6.031220D-05
P   8   1.00
      3.997000D+02          -1.162510D-03
      9.419000D+01          -8.656640D-03
      2.975000D+01          -3.908860D-02
      1.077000D+01          -9.346250D-02
      4.119000D+00          -1.479940D-01
      1.625000D+00           3.019040D-02
      4.726000D-01           5.615730D-01
      1.407000D-01           5.347760D-01
P   1   1.00
      1.407000D-01           1.000000D+00
P   1   1.00
      0.0399000              1.0000000
P   1   1.00
      0.01995              1.0000000
P   1   1.00
      0.009975              1.0000000
P   1   1.00
      0.0049875              1.0000000
D   1   1.00
      4.790000D-01           1.0000000
D   1   1.00
      0.1520000              1.0000000
****
$end

--------------------------------------------------------------
 ----------------------------------------------------------------
             Standard Nuclear Orientation (Angstroms)
    I     Atom           X                Y                Z
 ----------------------------------------------------------------
    1      C       0.4308708662     0.5305803713     0.5409466334
    2      C      -0.4147530308    -0.6850939741     0.7076618152
    3      C       0.0822747366    -1.9879023478     0.1710651489
    4      C       1.3094780146    -2.0531064700    -0.3752003450
    5      C       2.1813017593    -0.8673153222    -0.5129679639
    6      C       1.6848771143     0.4240320491     0.0041621986
    7      O      -1.4929066091    -0.6380975042     1.3014809575
    8      C      -0.8418705193    -3.1590928140     0.3095938629
    9      O       3.2734729886    -0.9525700668    -1.0776672327
   10      O       2.5415494298     1.4804496754    -0.0448144621
   11      C       2.3027389899     2.4112798244    -1.1228412580
   12      O       0.0458447986     1.7422058593     0.9950652433
   13      C      -1.3496754099     2.0869218983     1.1828972954
   14      H      -1.7865686173    -2.9671301420    -0.2113443369
   15      H      -0.3829810755    -4.0621886493    -0.0993962091
   16      H      -1.0980256387    -3.3246593944     1.3614671203
   17      H      -1.7304098140     1.6657849856     2.1128844098
   18      H      -1.3466198833     3.1776190658     1.2205132927
   19      H      -1.9544225245     1.7367587512     0.3432011126
   20      H       2.4443723343     1.9084902688    -2.0856832490
   21      H       1.2934067517     2.8309930382    -1.0521920809
   22      H       3.0458321348     3.1997649101    -1.0005780921
   23      H       1.7221146096    -2.9825849339    -0.7598884780
   24      O      -6.8635964632     0.5764942712    -1.4891722980
   25      H      -6.4383428619     0.3925410077    -0.6428418055
   26      H      -6.1147236983     0.5549339225    -2.0971836725
 ----------------------------------------------------------------
 Molecular Point Group                 C1    NOp =  1
 Largest Abelian Subgroup              C1    NOp =  1
 Nuclear Repulsion Energy =         880.53430431 hartrees
 There are       53 alpha and       53 beta electrons
 Requested basis set is non-standard
 There are 348 shells and 676 basis functions
 Total memory of 120000 MB is distributed as follows: 
   MEM_STATIC is set to 2000 MB
   QALLOC/CCMAN JOB total memory use is  118000 MB
 Warning: actual memory use might exceed 120000 MB

 Total QAlloc Memory Limit 120000 MB
 Mega-Array Size      1956 MB
 MEM_STATIC part      2000 MB

 Requested basis set is rimp2-aug-cc-pVDZ
 There are 416 shells and 1284 basis functions
 A cutoff of  1.0D-14 yielded  59996 shell pairs
 There are    223342 function pairs (    241669 Cartesian)
 Smallest overlap matrix eigenvalue = 2.23E-11
 Linear dependence detected in AO basis
 Tighter screening thresholds may be required for diffuse basis sets
 Use S2THRESH > 14 and THRESH = 14 in case of SCF convergence issues
 Number of orthogonalized atomic orbitals = 598
 Maximum deviation from orthogonality = 4.052E-10

 Scale SEOQF with 1.000000e-02/1.000000e-02/1.000000e-02

 Standard Electronic Orientation quadrupole field applied
 Nucleus-field energy     =     0.0000000040 hartrees
 ================ Generating on-the-fly SAD Guess ================
 Attempting to make child job directory: /scratch/leuven/372/vsc37243/qchem496059//Frg1/
 Attempting to make child job directory: /scratch/leuven/372/vsc37243/qchem496059//Frg2/
 Attempting to make child job directory: /scratch/leuven/372/vsc37243/qchem496059//Frg3/
 Creating input file /scratch/leuven/372/vsc37243/qchem496059/Frg1.input
 using default PutDataFrgm: nothing
 calling putenv with: QCSCRATCH=/scratch/leuven/372/vsc37243/qchem496059/ 
 Spawning Job For Fragment 0
 Done Job For Fragment 0
 calling putenv with: QCSCRATCH=/scratch/leuven/372/vsc37243 
 calling putenv with: QCTHREADS=36 
 Creating input file /scratch/leuven/372/vsc37243/qchem496059/Frg2.input
 using default PutDataFrgm: nothing
 calling putenv with: QCSCRATCH=/scratch/leuven/372/vsc37243/qchem496059/ 
 Spawning Job For Fragment 1
 Done Job For Fragment 1
 calling putenv with: QCSCRATCH=/scratch/leuven/372/vsc37243 
 calling putenv with: QCTHREADS=36 
 Creating input file /scratch/leuven/372/vsc37243/qchem496059/Frg3.input
 using default PutDataFrgm: nothing
 calling putenv with: QCSCRATCH=/scratch/leuven/372/vsc37243/qchem496059/ 
 Spawning Job For Fragment 2
 Done Job For Fragment 2
 calling putenv with: QCSCRATCH=/scratch/leuven/372/vsc37243 
 calling putenv with: QCTHREADS=36 
 Time for running child jobs:  CPU 2.10 s  wall 24.51 s
 ============= Method Specific SAD Guess Constructed =============
 Guess from on-the-fly superposition of atomic densities
 Warning: Energy on first SCF cycle will be non-variational

 -----------------------------------------------------------------------
  General SCF calculation program by
  Eric Jon Sundstrom, Paul Horn, Yuezhi Mao, Dmitri Zuev, Alec White,
  David Stuck, Shaama M.S., Shane Yost, Joonho Lee, David Small,
  Daniel Levine, Susi Lehtola, Hugh Burton, Evgeny Epifanovsky,
  Bang C. Huynh
 -----------------------------------------------------------------------
 Hartree-Fock
 using 36 threads for integral computing
 -------------------------------------------------------
 OpenMP Integral computing Module                
 Release: version 1.0, May 2013, Q-Chem Inc. Pittsburgh 
 -------------------------------------------------------
 A restricted SCF calculation will be
 performed using DIIS
 SCF converges when DIIS error is below 1.0e-10
 ---------------------------------------
  Cycle       Energy         DIIS error
 ---------------------------------------
    1    -726.3154444308      2.21e-02  
    2    -721.8105108516      2.69e-03  
    3    -721.9763058390      2.17e-03  
    4    -722.1371015364      3.41e-04  
    5    -722.1439079228      1.24e-04  
    6    -722.1447262973      3.42e-05  
    7    -722.1448523486      1.65e-05  
    8    -722.1448836659      6.48e-06  
    9    -722.1448880804      2.66e-06  
   10    -722.1448887479      9.05e-07  
   11    -722.1448888279      3.10e-07  
   12    -722.1448888398      1.12e-07  
   13    -722.1448888419      6.12e-08  
   14    -722.1448888426      2.92e-08  
   15    -722.1448888428      1.36e-08  
   16    -722.1448888429      4.55e-09  
   17    -722.1448888429      2.13e-09  
   18    -722.1448888429      1.02e-09  
   19    -722.1448888429      3.56e-10  
   20    -722.1448888429      1.58e-10  
   21    -722.1448888429      6.34e-11  Convergence criterion met
 ---------------------------------------
 SCF time:   CPU 10037.33s  wall 450.00s 
 SCF   energy =  -722.14488884
 Total energy =  -722.14488884


 ------------------------------------------------------------------------------

   CCMAN2: suite of methods based on coupled cluster
           and equation of motion theories.

   Components:
   * libvmm-1.3-trunk
     by Evgeny Epifanovsky, Ilya Kaliman.
   * libtensor-2.5-trunk
     by Evgeny Epifanovsky, Michael Wormit, Dmitry Zuev, Sam Manzer, 
        Ilya Kaliman.
   * libcc-2.5-trunk
     by Evgeny Epifanovsky, Arik Landau, Tomasz Kus, Kirill Khistyaev, 
        Dmitry Zuev, Prashant Manohar, Xintian Feng, Anna Krylov, 
        Matthew Goldey, Alec White, Thomas Jagau, Kaushik Nanda, 
        Anastasia Gunina, Alexander Kunitsa, Joonho Lee.

   CCMAN original authors:
   Anna I. Krylov, C. David Sherrill, Steven R. Gwaltney,
   Edward F. C. Byrd (2000)
   Sergey V. Levchenko, Lyudmila V. Slipchenko, Tao Wang,
   Ana-Maria C. Cristian (2003)
   Piotr A. Pieniazek, C. Melania Oana, Evgeny Epifanovsky (2007)
   Prashant Manohar (2009)

 ------------------------------------------------------------------------------


 Allocating and initializing 115000MB of RAM (this may take a while)...
 Calculation will run on 36 cores.


 Alpha MOs, Restricted
 -- Occupied --                  
-20.615 -20.597 -20.595 -20.583 -20.579 -11.382 -11.361 -11.344
  1 A     2 A     3 A     4 A     5 A     6 A     7 A     8 A                  
-11.326 -11.303 -11.296 -11.295 -11.280 -11.256  -1.445  -1.420
  9 A    10 A    11 A    12 A    13 A    14 A    15 A    16 A                  
 -1.408  -1.388  -1.358  -1.159  -1.081  -1.001  -0.975  -0.949
 17 A    18 A    19 A    20 A    21 A    22 A    23 A    24 A                  
 -0.917  -0.841  -0.817  -0.750  -0.714  -0.713  -0.711  -0.674
 25 A    26 A    27 A    28 A    29 A    30 A    31 A    32 A                  
 -0.663  -0.651  -0.640  -0.634  -0.620  -0.609  -0.593  -0.592
 33 A    34 A    35 A    36 A    37 A    38 A    39 A    40 A                  
 -0.576  -0.563  -0.562  -0.549  -0.542  -0.525  -0.518  -0.513
 41 A    42 A    43 A    44 A    45 A    46 A    47 A    48 A                  
 -0.476  -0.448  -0.440  -0.401  -0.352
 49 A    50 A    51 A    52 A    53 A                                          
 -- Virtual --                   
  0.000   0.001   0.001   0.001   0.002   0.002   0.002   0.003
 54 A    55 A    56 A    57 A    58 A    59 A    60 A    61 A                  
  0.003   0.003   0.004   0.004   0.005   0.006   0.006   0.006
 62 A    63 A    64 A    65 A    66 A    67 A    68 A    69 A                  
  0.007   0.008   0.008   0.009   0.009   0.009   0.010   0.010
 70 A    71 A    72 A    73 A    74 A    75 A    76 A    77 A                  
  0.011   0.012   0.012   0.012   0.013   0.013   0.015   0.015
 78 A    79 A    80 A    81 A    82 A    83 A    84 A    85 A                  
  0.016   0.017   0.017   0.019   0.019   0.020   0.021   0.021
 86 A    87 A    88 A    89 A    90 A    91 A    92 A    93 A                  
  0.021   0.022   0.023   0.023   0.023   0.023   0.024   0.024
 94 A    95 A    96 A    97 A    98 A    99 A   100 A   101 A                  
  0.025   0.025   0.026   0.026   0.026   0.028   0.028   0.029
102 A   103 A   104 A   105 A   106 A   107 A   108 A   109 A                  
  0.031   0.032   0.035   0.036   0.037   0.037   0.039   0.040
110 A   111 A   112 A   113 A   114 A   115 A   116 A   117 A                  
  0.040   0.041   0.042   0.043   0.044   0.044   0.045   0.045
118 A   119 A   120 A   121 A   122 A   123 A   124 A   125 A                  
  0.046   0.047   0.048   0.048   0.049   0.050   0.051   0.052
126 A   127 A   128 A   129 A   130 A   131 A   132 A   133 A                  
  0.052   0.053   0.054   0.055   0.056   0.057   0.058   0.058
134 A   135 A   136 A   137 A   138 A   139 A   140 A   141 A                  
  0.060   0.060   0.062   0.063   0.064   0.064   0.066   0.068
142 A   143 A   144 A   145 A   146 A   147 A   148 A   149 A                  
  0.070   0.072   0.073   0.075   0.075   0.077   0.078   0.080
150 A   151 A   152 A   153 A   154 A   155 A   156 A   157 A                  
  0.082   0.084   0.085   0.086   0.087   0.089   0.089   0.091
158 A   159 A   160 A   161 A   162 A   163 A   164 A   165 A                  
  0.093   0.095   0.096   0.098   0.099   0.101   0.102   0.104
166 A   167 A   168 A   169 A   170 A   171 A   172 A   173 A                  
  0.105   0.105   0.107   0.108   0.111   0.111   0.112   0.113
174 A   175 A   176 A   177 A   178 A   179 A   180 A   181 A                  
  0.116   0.118   0.119   0.122   0.123   0.124   0.126   0.127
182 A   183 A   184 A   185 A   186 A   187 A   188 A   189 A                  
  0.129   0.130   0.133   0.133   0.133   0.135   0.137   0.140
190 A   191 A   192 A   193 A   194 A   195 A   196 A   197 A                  
  0.142   0.145   0.147   0.148   0.149   0.151   0.153   0.154
198 A   199 A   200 A   201 A   202 A   203 A   204 A   205 A                  
  0.158   0.161   0.162   0.163   0.167   0.170   0.173   0.176
206 A   207 A   208 A   209 A   210 A   211 A   212 A   213 A                  
  0.178   0.180   0.181   0.184   0.186   0.186   0.189   0.191
214 A   215 A   216 A   217 A   218 A   219 A   220 A   221 A                  
  0.193   0.196   0.201   0.204   0.205   0.207   0.212   0.212
222 A   223 A   224 A   225 A   226 A   227 A   228 A   229 A                  
  0.215   0.218   0.220   0.222   0.227   0.229   0.231   0.234
230 A   231 A   232 A   233 A   234 A   235 A   236 A   237 A                  
  0.237   0.239   0.242   0.244   0.248   0.250   0.256   0.261
238 A   239 A   240 A   241 A   242 A   243 A   244 A   245 A                  
  0.267   0.270   0.272   0.274   0.276   0.279   0.281   0.285
246 A   247 A   248 A   249 A   250 A   251 A   252 A   253 A                  
  0.287   0.288   0.296   0.299   0.304   0.308   0.312   0.313
254 A   255 A   256 A   257 A   258 A   259 A   260 A   261 A                  
  0.320   0.325   0.331   0.331   0.335   0.339   0.345   0.350
262 A   263 A   264 A   265 A   266 A   267 A   268 A   269 A                  
  0.352   0.357   0.361   0.368   0.370   0.375   0.382   0.383
270 A   271 A   272 A   273 A   274 A   275 A   276 A   277 A                  
  0.387   0.389   0.394   0.395   0.400   0.404   0.406   0.407
278 A   279 A   280 A   281 A   282 A   283 A   284 A   285 A                  
  0.408   0.413   0.417   0.419   0.429   0.440   0.442   0.446
286 A   287 A   288 A   289 A   290 A   291 A   292 A   293 A                  
  0.448   0.453   0.458   0.463   0.466   0.473   0.474   0.480
294 A   295 A   296 A   297 A   298 A   299 A   300 A   301 A                  
  0.481   0.484   0.489   0.492   0.497   0.505   0.509   0.514
302 A   303 A   304 A   305 A   306 A   307 A   308 A   309 A                  
  0.520   0.523   0.527   0.529   0.539   0.542   0.543   0.554
310 A   311 A   312 A   313 A   314 A   315 A   316 A   317 A                  
  0.558   0.563   0.565   0.569   0.576   0.578   0.582   0.588
318 A   319 A   320 A   321 A   322 A   323 A   324 A   325 A                  
  0.593   0.597   0.607   0.611   0.623   0.625   0.631   0.635
326 A   327 A   328 A   329 A   330 A   331 A   332 A   333 A                  
  0.639   0.647   0.653   0.669   0.671   0.675   0.678   0.680
334 A   335 A   336 A   337 A   338 A   339 A   340 A   341 A                  
  0.681   0.687   0.695   0.702   0.704   0.712   0.713   0.719
342 A   343 A   344 A   345 A   346 A   347 A   348 A   349 A                  
  0.725   0.727   0.730   0.736   0.742   0.751   0.754   0.758
350 A   351 A   352 A   353 A   354 A   355 A   356 A   357 A                  
  0.766   0.767   0.776   0.781   0.786   0.797   0.801   0.807
358 A   359 A   360 A   361 A   362 A   363 A   364 A   365 A                  
  0.814   0.821   0.824   0.828   0.836   0.843   0.854   0.858
366 A   367 A   368 A   369 A   370 A   371 A   372 A   373 A                  
  0.869   0.885   0.889   0.892   0.899   0.903   0.913   0.914
374 A   375 A   376 A   377 A   378 A   379 A   380 A   381 A                  
  0.920   0.942   0.944   0.947   0.963   0.972   0.977   0.991
382 A   383 A   384 A   385 A   386 A   387 A   388 A   389 A                  
  1.007   1.010   1.023   1.028   1.041   1.047   1.054   1.067
390 A   391 A   392 A   393 A   394 A   395 A   396 A   397 A                  
  1.079   1.088   1.098   1.108   1.117   1.124   1.136   1.153
398 A   399 A   400 A   401 A   402 A   403 A   404 A   405 A                  
  1.158   1.163   1.170   1.175   1.180   1.192   1.202   1.212
406 A   407 A   408 A   409 A   410 A   411 A   412 A   413 A                  
  1.216   1.233   1.242   1.251   1.270   1.274   1.287   1.292
414 A   415 A   416 A   417 A   418 A   419 A   420 A   421 A                  
  1.314   1.317   1.342   1.354   1.361   1.374   1.387   1.407
422 A   423 A   424 A   425 A   426 A   427 A   428 A   429 A                  
  1.414   1.427   1.437   1.447   1.466   1.470   1.475   1.486
430 A   431 A   432 A   433 A   434 A   435 A   436 A   437 A                  
  1.499   1.506   1.525   1.532   1.551   1.563   1.566   1.568
438 A   439 A   440 A   441 A   442 A   443 A   444 A   445 A                  
  1.592   1.605   1.609   1.618   1.657   1.659   1.667   1.672
446 A   447 A   448 A   449 A   450 A   451 A   452 A   453 A                  
  1.681   1.696   1.704   1.709   1.725   1.730   1.751   1.760
454 A   455 A   456 A   457 A   458 A   459 A   460 A   461 A                  
  1.766   1.770   1.778   1.791   1.794   1.798   1.811   1.819
462 A   463 A   464 A   465 A   466 A   467 A   468 A   469 A                  
  1.838   1.853   1.864   1.884   1.892   1.898   1.917   1.924
470 A   471 A   472 A   473 A   474 A   475 A   476 A   477 A                  
  1.932   1.943   1.947   1.960   1.969   1.975   1.978   1.993
478 A   479 A   480 A   481 A   482 A   483 A   484 A   485 A                  
  1.999   2.019   2.032   2.044   2.047   2.061   2.072   2.086
486 A   487 A   488 A   489 A   490 A   491 A   492 A   493 A                  
  2.103   2.112   2.127   2.146   2.155   2.155   2.165   2.182
494 A   495 A   496 A   497 A   498 A   499 A   500 A   501 A                  
  2.195   2.205   2.210   2.227   2.241   2.248   2.261   2.269
502 A   503 A   504 A   505 A   506 A   507 A   508 A   509 A                  
  2.271   2.280   2.290   2.304   2.309   2.320   2.333   2.348
510 A   511 A   512 A   513 A   514 A   515 A   516 A   517 A                  
  2.356   2.376   2.382   2.391   2.416   2.435   2.443   2.458
518 A   519 A   520 A   521 A   522 A   523 A   524 A   525 A                  
  2.494   2.497   2.505   2.518   2.523   2.539   2.543   2.573
526 A   527 A   528 A   529 A   530 A   531 A   532 A   533 A                  
  2.579   2.604   2.626   2.660   2.667   2.670   2.690   2.716
534 A   535 A   536 A   537 A   538 A   539 A   540 A   541 A                  
  2.729   2.743   2.758   2.792   2.810   2.813   2.829   2.844
542 A   543 A   544 A   545 A   546 A   547 A   548 A   549 A                  
  2.886   2.923   2.935   2.960   2.966   3.005   3.034   3.045
550 A   551 A   552 A   553 A   554 A   555 A   556 A   557 A                  
  3.064   3.082   3.139   3.146   3.160   3.191   3.321   3.349
558 A   559 A   560 A   561 A   562 A   563 A   564 A   565 A                  
  3.399   3.436   3.479   3.544   3.654   3.704   3.706   3.714
566 A   567 A   568 A   569 A   570 A   571 A   572 A   573 A                  
  3.745   3.761   3.809   3.817   3.832   3.858   3.859   3.880
574 A   575 A   576 A   577 A   578 A   579 A   580 A   581 A                  
  3.895   3.937   3.959   3.989   4.021   4.027   4.040   4.073
582 A   583 A   584 A   585 A   586 A   587 A   588 A   589 A                  
  4.086   4.114   4.161   4.185   4.188   4.241   4.282   4.302
590 A   591 A   592 A   593 A   594 A   595 A   596 A   597 A                  
  4.768
598 A                                                                          

 Beta MOs, Restricted
 -- Occupied --                  
-20.615 -20.597 -20.595 -20.583 -20.579 -11.382 -11.361 -11.344
  1 A     2 A     3 A     4 A     5 A     6 A     7 A     8 A                  
-11.326 -11.303 -11.296 -11.295 -11.280 -11.256  -1.445  -1.420
  9 A    10 A    11 A    12 A    13 A    14 A    15 A    16 A                  
 -1.408  -1.388  -1.358  -1.159  -1.081  -1.001  -0.975  -0.949
 17 A    18 A    19 A    20 A    21 A    22 A    23 A    24 A                  
 -0.917  -0.841  -0.817  -0.750  -0.714  -0.713  -0.711  -0.674
 25 A    26 A    27 A    28 A    29 A    30 A    31 A    32 A                  
 -0.663  -0.651  -0.640  -0.634  -0.620  -0.609  -0.593  -0.592
 33 A    34 A    35 A    36 A    37 A    38 A    39 A    40 A                  
 -0.576  -0.563  -0.562  -0.549  -0.542  -0.525  -0.518  -0.513
 41 A    42 A    43 A    44 A    45 A    46 A    47 A    48 A                  
 -0.476  -0.448  -0.440  -0.401  -0.352
 49 A    50 A    51 A    52 A    53 A                                          
 -- Virtual --                   
  0.000   0.001   0.001   0.001   0.002   0.002   0.002   0.003
 54 A    55 A    56 A    57 A    58 A    59 A    60 A    61 A                  
  0.003   0.003   0.004   0.004   0.005   0.006   0.006   0.006
 62 A    63 A    64 A    65 A    66 A    67 A    68 A    69 A                  
  0.007   0.008   0.008   0.009   0.009   0.009   0.010   0.010
 70 A    71 A    72 A    73 A    74 A    75 A    76 A    77 A                  
  0.011   0.012   0.012   0.012   0.013   0.013   0.015   0.015
 78 A    79 A    80 A    81 A    82 A    83 A    84 A    85 A                  
  0.016   0.017   0.017   0.019   0.019   0.020   0.021   0.021
 86 A    87 A    88 A    89 A    90 A    91 A    92 A    93 A                  
  0.021   0.022   0.023   0.023   0.023   0.023   0.024   0.024
 94 A    95 A    96 A    97 A    98 A    99 A   100 A   101 A                  
  0.025   0.025   0.026   0.026   0.026   0.028   0.028   0.029
102 A   103 A   104 A   105 A   106 A   107 A   108 A   109 A                  
  0.031   0.032   0.035   0.036   0.037   0.037   0.039   0.040
110 A   111 A   112 A   113 A   114 A   115 A   116 A   117 A                  
  0.040   0.041   0.042   0.043   0.044   0.044   0.045   0.045
118 A   119 A   120 A   121 A   122 A   123 A   124 A   125 A                  
  0.046   0.047   0.048   0.048   0.049   0.050   0.051   0.052
126 A   127 A   128 A   129 A   130 A   131 A   132 A   133 A                  
  0.052   0.053   0.054   0.055   0.056   0.057   0.058   0.058
134 A   135 A   136 A   137 A   138 A   139 A   140 A   141 A                  
  0.060   0.060   0.062   0.063   0.064   0.064   0.066   0.068
142 A   143 A   144 A   145 A   146 A   147 A   148 A   149 A                  
  0.070   0.072   0.073   0.075   0.075   0.077   0.078   0.080
150 A   151 A   152 A   153 A   154 A   155 A   156 A   157 A                  
  0.082   0.084   0.085   0.086   0.087   0.089   0.089   0.091
158 A   159 A   160 A   161 A   162 A   163 A   164 A   165 A                  
  0.093   0.095   0.096   0.098   0.099   0.101   0.102   0.104
166 A   167 A   168 A   169 A   170 A   171 A   172 A   173 A                  
  0.105   0.105   0.107   0.108   0.111   0.111   0.112   0.113
174 A   175 A   176 A   177 A   178 A   179 A   180 A   181 A                  
  0.116   0.118   0.119   0.122   0.123   0.124   0.126   0.127
182 A   183 A   184 A   185 A   186 A   187 A   188 A   189 A                  
  0.129   0.130   0.133   0.133   0.133   0.135   0.137   0.140
190 A   191 A   192 A   193 A   194 A   195 A   196 A   197 A                  
  0.142   0.145   0.147   0.148   0.149   0.151   0.153   0.154
198 A   199 A   200 A   201 A   202 A   203 A   204 A   205 A                  
  0.158   0.161   0.162   0.163   0.167   0.170   0.173   0.176
206 A   207 A   208 A   209 A   210 A   211 A   212 A   213 A                  
  0.178   0.180   0.181   0.184   0.186   0.186   0.189   0.191
214 A   215 A   216 A   217 A   218 A   219 A   220 A   221 A                  
  0.193   0.196   0.201   0.204   0.205   0.207   0.212   0.212
222 A   223 A   224 A   225 A   226 A   227 A   228 A   229 A                  
  0.215   0.218   0.220   0.222   0.227   0.229   0.231   0.234
230 A   231 A   232 A   233 A   234 A   235 A   236 A   237 A                  
  0.237   0.239   0.242   0.244   0.248   0.250   0.256   0.261
238 A   239 A   240 A   241 A   242 A   243 A   244 A   245 A                  
  0.267   0.270   0.272   0.274   0.276   0.279   0.281   0.285
246 A   247 A   248 A   249 A   250 A   251 A   252 A   253 A                  
  0.287   0.288   0.296   0.299   0.304   0.308   0.312   0.313
254 A   255 A   256 A   257 A   258 A   259 A   260 A   261 A                  
  0.320   0.325   0.331   0.331   0.335   0.339   0.345   0.350
262 A   263 A   264 A   265 A   266 A   267 A   268 A   269 A                  
  0.352   0.357   0.361   0.368   0.370   0.375   0.382   0.383
270 A   271 A   272 A   273 A   274 A   275 A   276 A   277 A                  
  0.387   0.389   0.394   0.395   0.400   0.404   0.406   0.407
278 A   279 A   280 A   281 A   282 A   283 A   284 A   285 A                  
  0.408   0.413   0.417   0.419   0.429   0.440   0.442   0.446
286 A   287 A   288 A   289 A   290 A   291 A   292 A   293 A                  
  0.448   0.453   0.458   0.463   0.466   0.473   0.474   0.480
294 A   295 A   296 A   297 A   298 A   299 A   300 A   301 A                  
  0.481   0.484   0.489   0.492   0.497   0.505   0.509   0.514
302 A   303 A   304 A   305 A   306 A   307 A   308 A   309 A                  
  0.520   0.523   0.527   0.529   0.539   0.542   0.543   0.554
310 A   311 A   312 A   313 A   314 A   315 A   316 A   317 A                  
  0.558   0.563   0.565   0.569   0.576   0.578   0.582   0.588
318 A   319 A   320 A   321 A   322 A   323 A   324 A   325 A                  
  0.593   0.597   0.607   0.611   0.623   0.625   0.631   0.635
326 A   327 A   328 A   329 A   330 A   331 A   332 A   333 A                  
  0.639   0.647   0.653   0.669   0.671   0.675   0.678   0.680
334 A   335 A   336 A   337 A   338 A   339 A   340 A   341 A                  
  0.681   0.687   0.695   0.702   0.704   0.712   0.713   0.719
342 A   343 A   344 A   345 A   346 A   347 A   348 A   349 A                  
  0.725   0.727   0.730   0.736   0.742   0.751   0.754   0.758
350 A   351 A   352 A   353 A   354 A   355 A   356 A   357 A                  
  0.766   0.767   0.776   0.781   0.786   0.797   0.801   0.807
358 A   359 A   360 A   361 A   362 A   363 A   364 A   365 A                  
  0.814   0.821   0.824   0.828   0.836   0.843   0.854   0.858
366 A   367 A   368 A   369 A   370 A   371 A   372 A   373 A                  
  0.869   0.885   0.889   0.892   0.899   0.903   0.913   0.914
374 A   375 A   376 A   377 A   378 A   379 A   380 A   381 A                  
  0.920   0.942   0.944   0.947   0.963   0.972   0.977   0.991
382 A   383 A   384 A   385 A   386 A   387 A   388 A   389 A                  
  1.007   1.010   1.023   1.028   1.041   1.047   1.054   1.067
390 A   391 A   392 A   393 A   394 A   395 A   396 A   397 A                  
  1.079   1.088   1.098   1.108   1.117   1.124   1.136   1.153
398 A   399 A   400 A   401 A   402 A   403 A   404 A   405 A                  
  1.158   1.163   1.170   1.175   1.180   1.192   1.202   1.212
406 A   407 A   408 A   409 A   410 A   411 A   412 A   413 A                  
  1.216   1.233   1.242   1.251   1.270   1.274   1.287   1.292
414 A   415 A   416 A   417 A   418 A   419 A   420 A   421 A                  
  1.314   1.317   1.342   1.354   1.361   1.374   1.387   1.407
422 A   423 A   424 A   425 A   426 A   427 A   428 A   429 A                  
  1.414   1.427   1.437   1.447   1.466   1.470   1.475   1.486
430 A   431 A   432 A   433 A   434 A   435 A   436 A   437 A                  
  1.499   1.506   1.525   1.532   1.551   1.563   1.566   1.568
438 A   439 A   440 A   441 A   442 A   443 A   444 A   445 A                  
  1.592   1.605   1.609   1.618   1.657   1.659   1.667   1.672
446 A   447 A   448 A   449 A   450 A   451 A   452 A   453 A                  
  1.681   1.696   1.704   1.709   1.725   1.730   1.751   1.760
454 A   455 A   456 A   457 A   458 A   459 A   460 A   461 A                  
  1.766   1.770   1.778   1.791   1.794   1.798   1.811   1.819
462 A   463 A   464 A   465 A   466 A   467 A   468 A   469 A                  
  1.838   1.853   1.864   1.884   1.892   1.898   1.917   1.924
470 A   471 A   472 A   473 A   474 A   475 A   476 A   477 A                  
  1.932   1.943   1.947   1.960   1.969   1.975   1.978   1.993
478 A   479 A   480 A   481 A   482 A   483 A   484 A   485 A                  
  1.999   2.019   2.032   2.044   2.047   2.061   2.072   2.086
486 A   487 A   488 A   489 A   490 A   491 A   492 A   493 A                  
  2.103   2.112   2.127   2.146   2.155   2.155   2.165   2.182
494 A   495 A   496 A   497 A   498 A   499 A   500 A   501 A                  
  2.195   2.205   2.210   2.227   2.241   2.248   2.261   2.269
502 A   503 A   504 A   505 A   506 A   507 A   508 A   509 A                  
  2.271   2.280   2.290   2.304   2.309   2.320   2.333   2.348
510 A   511 A   512 A   513 A   514 A   515 A   516 A   517 A                  
  2.356   2.376   2.382   2.391   2.416   2.435   2.443   2.458
518 A   519 A   520 A   521 A   522 A   523 A   524 A   525 A                  
  2.494   2.497   2.505   2.518   2.523   2.539   2.543   2.573
526 A   527 A   528 A   529 A   530 A   531 A   532 A   533 A                  
  2.579   2.604   2.626   2.660   2.667   2.670   2.690   2.716
534 A   535 A   536 A   537 A   538 A   539 A   540 A   541 A                  
  2.729   2.743   2.758   2.792   2.810   2.813   2.829   2.844
542 A   543 A   544 A   545 A   546 A   547 A   548 A   549 A                  
  2.886   2.923   2.935   2.960   2.966   3.005   3.034   3.045
550 A   551 A   552 A   553 A   554 A   555 A   556 A   557 A                  
  3.064   3.082   3.139   3.146   3.160   3.191   3.321   3.349
558 A   559 A   560 A   561 A   562 A   563 A   564 A   565 A                  
  3.399   3.436   3.479   3.544   3.654   3.704   3.706   3.714
566 A   567 A   568 A   569 A   570 A   571 A   572 A   573 A                  
  3.745   3.761   3.809   3.817   3.832   3.858   3.859   3.880
574 A   575 A   576 A   577 A   578 A   579 A   580 A   581 A                  
  3.895   3.937   3.959   3.989   4.021   4.027   4.040   4.073
582 A   583 A   584 A   585 A   586 A   587 A   588 A   589 A                  
  4.086   4.114   4.161   4.185   4.188   4.241   4.282   4.302
590 A   591 A   592 A   593 A   594 A   595 A   596 A   597 A                  
  4.768
598 A                                                                          

 Occupation and symmetry of molecular orbitals

 Point group: C1 (1 irreducible representation).

                           A     All 
 -------------------------------------
 All molecular orbitals:
  - Alpha                  598   598 
  - Beta                   598   598 
 -------------------------------------
 Alpha orbitals:
  - Frozen occupied        14    14  
  - Active occupied        39    39  
  - Active virtual         545   545 
  - Frozen virtual         0     0   
 -------------------------------------
 Beta orbitals:
  - Frozen occupied        14    14  
  - Active occupied        39    39  
  - Active virtual         545   545 
  - Frozen virtual         0     0   
 -------------------------------------

 Import integrals:   CPU 0.00 s  wall 0.00 s

 Import integrals:   CPU 1051.56 s  wall 30.65 s


 MP2  CPU 615.25 s  wall 24.36 s
Running a double precision version
           RI-CC2 T amplitudes will be solved using DIIS.

           Start     Size      MaxIter   EConv     TConv     
           3         7         100       1.00e-08  1.00e-07  
 ------------------------------------------------------------------------------
           Energy (a.u.)   Ediff      Tdiff       Comment
 ------------------------------------------------------------------------------
        -724.3805212068                           
     1  -724.3787711668   1.75e-03   1.54e+00     
     2  -724.4081752543   2.94e-02   7.14e-02     
     3  -724.4106776814   2.50e-03   4.91e-02     
     4  -724.4154768677   4.80e-03   1.63e-02     Switched to DIIS steps.
     5  -724.4185513007   3.07e-03   1.93e-02     
     6  -724.4189182870   3.67e-04   3.43e-03     
     7  -724.4189557250   3.74e-05   2.70e-03     
     8  -724.4189530931   2.63e-06   8.94e-04     
     9  -724.4189729083   1.98e-05   5.47e-04     
    10  -724.4189834112   1.05e-05   2.50e-04     
    11  -724.4189829653   4.46e-07   1.39e-04     
    12  -724.4189856251   2.66e-06   1.27e-04     
    13  -724.4189834638   2.16e-06   4.76e-05     
    14  -724.4189829828   4.81e-07   2.34e-05     
    15  -724.4189824179   5.65e-07   1.28e-05     
    16  -724.4189820115   4.06e-07   7.56e-06     
    17  -724.4189818833   1.28e-07   5.78e-06     
    18  -724.4189817698   1.14e-07   2.94e-06     
    19  -724.4189817381   3.17e-08   2.08e-06     
    20  -724.4189817456   7.45e-09   1.14e-06     
    21  -724.4189817416   4.00e-09   5.06e-07     
    22  -724.4189817458   4.26e-09   4.68e-07     
    23  -724.4189817457   9.92e-11   2.54e-07     
    24  -724.4189817430   2.72e-09   1.65e-07     
    25  -724.4189817429   1.49e-10   8.23e-08     
 ------------------------------------------------------------------------------
        -724.4189817429                           CC2 T converged.

End of double precision
 SCF energy                 = -722.14488884
 MP2 energy                 = -724.38052121
 CC2 correlation energy    =   -2.27409290
 CC2 total energy          = -724.41898174

 CC2  T1^2 = 0.0609  T2^2 = 0.7743  Leading amplitudes:

 Amplitude    Orbitals with energies
 -0.0528       44 (A) A                  ->    61 (A) A                   
              -0.5489                          0.0028                     
 -0.0528       44 (A) B                  ->    61 (A) B                   
              -0.5489                          0.0028                     
 -0.0385       45 (A) A                  ->    61 (A) A                   
              -0.5420                          0.0028                     
 -0.0385       45 (A) B                  ->    61 (A) B                   
              -0.5420                          0.0028                     

 Amplitude    Orbitals with energies
 -0.0544       52 (A) A      52 (A) B    ->    61 (A) A      61 (A) B     
              -0.4014       -0.4014            0.0028        0.0028       
  0.0544       52 (A) A      52 (A) B    ->    61 (A) B      61 (A) A     
              -0.4014       -0.4014            0.0028        0.0028       
  0.0544       52 (A) B      52 (A) A    ->    61 (A) A      61 (A) B     
              -0.4014       -0.4014            0.0028        0.0028       
 -0.0544       52 (A) B      52 (A) A    ->    61 (A) B      61 (A) A     
              -0.4014       -0.4014            0.0028        0.0028       

 Computing CC2 intermediates for later calculations in double precision
 Finished.


 CC2  CPU 32253.98 s  wall 1075.81 s
        Solving for EOMEA-CC2/MP2 A transitions.

Running a double precision version
      RI-EOMEA-CC2/MP2 right amplitudes will be solved using Davidson.
        Amplitudes will be solved using standard  algorithm.
     Hard-coded thresholds: 
     LinDepThresh=1.00e-15  NormThresh=1.00e-06  ReorthogonThresh=1.00e-02

      Roots     MaxVec    MaxIter   Precond   Conv      Shift    
      2         120       60        1         1.00e-08  0.00e+00  
 ------------------------------------------------------------------------------
      Iter ConvRoots NVecs ResNorm^2 Current eigenvalues (eV)
 ------------------------------------------------------------------------------
      0    0      2     3.70e-04   0.0132   0.0311   
      1    0      4     2.27e-04   0.0050   0.0290   
      2    0      6     1.45e-03   -0.0307   0.0173   
      3    0      8     2.03e-03   -0.2665   -0.0476   
      4    0      10    6.73e-03   -1.0449   -0.0559   
      5    0      12    6.78e-04   -1.7569   -0.0577   
      6    0      14    8.99e-05   -1.8004   -0.0581   
      7    0      16    1.00e-05   -1.8035   -0.0583   
      8    0      18    1.55e-06   -1.8036   -0.0584   
      9    0      20    3.15e-07   -1.8036   -0.0584   
      10   0      22    7.40e-08   -1.8037   -0.0584   
      11   1      24    2.07e-08   -1.8037*  -0.0584   
      12   1      25    1.45e-08   -1.8037*  -0.0584   
      13   2      26    6.55e-09   -1.8037*  -0.0584*  

     Davidson procedure converged

 EOMEA transition 1/A
 Total energy = -724.48526549 a.u.  Excitation energy = -1.8037 eV.
 R1^2 = 0.9069  R2^2 = 0.0931  Res^2 = 8.04e-09
 Conv-d = yes

 Amplitude    Transitions between orbitals
 -0.8535       infty       ->    61 (A) B                   
 -0.3045       infty       ->    62 (A) B                   
  0.2051       infty       ->    63 (A) B                   
  0.1280       infty       ->    65 (A) B                   

              Summary of significant orbitals:

               Number  Type             Irrep      Energy
               61      Vir  Beta       61 (A)      0.0028
               62      Vir  Beta       62 (A)      0.0030
               63      Vir  Beta       63 (A)      0.0031
               65      Vir  Beta       65 (A)      0.0040


 EOMEA transition 2/A
 Total energy = -724.42112948 a.u.  Excitation energy = -0.0584 eV.
 R1^2 = 0.9915  R2^2 = 0.0085  Res^2 = 5.06e-09
 Conv-d = yes

 Amplitude    Transitions between orbitals
 -0.5951       infty       ->    54 (A) B                   
 -0.4467       infty       ->    59 (A) B                   
  0.3005       infty       ->    68 (A) B                   
 -0.2248       infty       ->    66 (A) B                   
  0.2212       infty       ->    60 (A) B                   
 -0.2036       infty       ->    58 (A) B                   
  0.1717       infty       ->    77 (A) B                   
  0.1392       infty       ->    82 (A) B                   
  0.1216       infty       ->    57 (A) B                   
  0.1197       infty       ->    71 (A) B                   
 -0.1120       infty       ->    72 (A) B                   

              Summary of significant orbitals:

               Number  Type             Irrep      Energy
               54      Vir  Beta       54 (A)      0.0004
               57      Vir  Beta       57 (A)      0.0015
               58      Vir  Beta       58 (A)      0.0020
               59      Vir  Beta       59 (A)      0.0021
               60      Vir  Beta       60 (A)      0.0024
               66      Vir  Beta       66 (A)      0.0046
               68      Vir  Beta       68 (A)      0.0057
               71      Vir  Beta       71 (A)      0.0077
               72      Vir  Beta       72 (A)      0.0081
               77      Vir  Beta       77 (A)      0.0105
               82      Vir  Beta       82 (A)      0.0128


Running a double precision version
      RI-EOMEA-CC2/MP2 left amplitudes will be solved using Davidson.
        Amplitudes will be solved using MOM  algorithm.
     Hard-coded thresholds: 
     LinDepThresh=1.00e-15  NormThresh=1.00e-06  ReorthogonThresh=1.00e-02

      Roots     MaxVec    MaxIter   Precond   Conv      Shift    
      2         120       60        1         1.00e-08  0.00e+00  
 ------------------------------------------------------------------------------
      Iter ConvRoots NVecs ResNorm^2 Current eigenvalues (eV)
 ------------------------------------------------------------------------------
      0    0      2     4.80e-03   -1.8037   -0.0584   
      1    0      4     2.00e-03   -1.8037   -0.0584   
      2    0      6     6.11e-05   -1.8037   -0.0584   
      3    0      8     7.47e-06   -1.8037   -0.0584   
      4    0      10    1.45e-06   -1.8037   -0.0584   
      5    0      12    1.51e-07   -1.8037   -0.0584   
      6    0      14    9.35e-08   -1.8037   -0.0584   
      7    1      16    1.09e-08   -1.8037   -0.0584*  
      8    2      17    3.23e-09   -1.8037*  -0.0584*  

     Davidson procedure converged

 Excited state properties for  EOMEA-CC2 transition 1/A
 Dipole moment (a.u.): 2.187051 (X -1.769770, Y 1.238781, Z -0.341363)
 R-squared (a.u.): 4389.413740 (XX 2785.156919, YY 1206.062601, ZZ 398.194220)
 Gauge origin (a.u.): (0.000000, 0.000000, 0.000000)
 Angular momentum (a.u.) against gauge origin: 
 (X -0.058348i, Y 0.044731i, Z 0.090715i)
 Traces of the OPDMs: Tr(AA) 53.000000, Tr(BB) 54.000000

 Excited state properties for  EOMEA-CC2 transition 2/A
 Dipole moment (a.u.): 6.078735 (X 5.029365, Y 0.010238, Z 3.414147)
 R-squared (a.u.): 4669.310997 (XX 2870.866852, YY 1299.793883, ZZ 498.650262)
 Gauge origin (a.u.): (0.000000, 0.000000, 0.000000)
 Angular momentum (a.u.) against gauge origin: 
 (X -0.046660i, Y 0.045468i, Z 0.072185i)
 Traces of the OPDMs: Tr(AA) 53.000000, Tr(BB) 54.000000


 EOMEA-CC2  CPU 7772.13 s  wall 363.91 s

 Start computing the transition properties

 ------------------------------------------------------------------------------
 State A: eomea_cc2/b: 1/A
 State B: cc2: 0/A

       ***    Dyson orbital calculation   *** 

 EOM-EA-CC2 state  1/A -- Reference  transition
 Energy difference = -1.8037 eV.

 Left Dyson orbital norm is 0.9587

Left beta Dyson orbital in the MO basis (canonical Q-Chem's ordering):
0  2.7695e-16  
1  7.3854e-17  
2  -1.0439e-16 
3  -6.7965e-15 
4  2.1112e-15  
5  8.9400e-17  
6  1.4172e-16  
7  5.3504e-16  
8  9.9532e-17  
9  4.1031e-16  
10 5.7817e-16  
11 4.6104e-16  
12 -3.2970e-16 
13 6.5633e-17  
14 -5.1649e-05 
15 -1.0243e-03 
16 7.7179e-04  
17 1.1872e-03  
18 3.1906e-05  
19 6.8458e-04  
20 4.5539e-04  
21 1.4540e-04  
22 -1.5821e-03 
23 2.4151e-04  
24 2.1521e-03  
25 2.7067e-03  
26 2.0281e-04  
27 3.1822e-03  
28 -5.7256e-04 
29 -5.8338e-06 
30 4.3461e-03  
31 2.1974e-02  
32 -3.1220e-03 
33 1.6204e-03  
34 2.0632e-02  
35 -2.2026e-02 
36 -1.0213e-02 
37 2.6426e-02  
38 -2.3286e-05 
39 -2.3472e-04 
40 3.0040e-03  
41 3.5712e-03  
42 -3.8389e-03 
43 -6.4859e-02 
44 -4.7924e-02 
45 8.1937e-03  
46 2.0611e-02  
47 2.3972e-04  
48 1.2443e-02  
49 9.7441e-03  
50 -1.4228e-02 
51 -1.0785e-02 
52 -1.2112e-02 
53 -1.2766e-03 
54 1.9984e-02  
55 4.3126e-02  
56 3.6639e-02  
57 -3.6497e-03 
58 2.6523e-03  
59 -1.9109e-03 
60 -8.9246e-01 
61 -3.1824e-01 
62 2.1445e-01  
63 3.0005e-02  
64 1.3380e-01  
65 7.1689e-02  
66 1.5199e-03  
67 3.5437e-02  
68 3.3974e-02  
69 -2.1125e-03 
70 -4.9508e-02 
71 -4.2581e-03 
72 -3.1257e-02 
73 2.9309e-03  
74 -1.5115e-02 
75 -3.6553e-02 
76 -1.7746e-02 
77 1.4803e-02  
78 9.0072e-03  
79 2.2942e-03  
80 1.7373e-02  
81 1.5665e-02  
82 -1.0789e-02 
83 1.7575e-03  
84 -1.7567e-03 
85 1.5932e-02  
86 -7.4644e-03 
87 -2.1389e-02 
88 2.3752e-02  
89 -1.1099e-02 
90 -3.1569e-03 
91 1.7457e-02  
92 -6.4497e-03 
93 8.8872e-03  
94 4.8727e-03  
95 -2.1632e-02 
96 -1.2640e-02 
97 -3.5218e-03 
98 -2.9577e-03 
99 -7.5837e-03 
100-1.2262e-03 
1017.8401e-03  
1028.6775e-03  
1031.2953e-02  
1043.1285e-03  
1051.5643e-02  
1069.4342e-03  
1078.7640e-04  
1083.1787e-03  
1095.1845e-03  
110-2.0108e-03 
111-7.7959e-03 
1126.7029e-04  
1131.3060e-02  
114-7.9901e-03 
115-8.6717e-03 
1167.9832e-04  
117-1.7480e-02 
1181.4921e-03  
1191.1744e-02  
1206.5953e-03  
121-1.1781e-03 
122-1.2161e-02 
1238.5376e-03  
124-1.6257e-02 
1257.7483e-03  
1261.4408e-04  
1274.7104e-03  
1282.4521e-03  
129-5.3848e-03 
1304.4759e-03  
131-7.5553e-04 
1326.1215e-03  
133-1.5321e-04 
134-8.2938e-03 
135-6.5013e-03 
1361.9998e-03  
1373.4909e-03  
138-1.3230e-03 
1391.6039e-03  
1403.1911e-03  
141-6.0495e-03 
1427.4000e-03  
143-6.5490e-03 
1442.2999e-03  
145-8.5970e-03 
1461.8358e-03  
1478.0659e-03  
1484.8748e-03  
1493.1698e-03  
150-1.0762e-03 
1511.0715e-02  
1521.0473e-03  
1535.2584e-03  
1544.7338e-03  
1557.8307e-03  
156-7.3359e-03 
157-6.5221e-03 
1581.9854e-03  
1592.8214e-03  
1603.9861e-03  
161-8.8519e-03 
162-2.8278e-03 
1637.2376e-03  
1643.8824e-03  
1651.4952e-03  
1661.2415e-03  
167-2.9795e-03 
168-6.8967e-04 
1698.9122e-04  
170-1.9690e-03 
171-4.9649e-03 
172-4.0883e-03 
1735.0939e-03  
174-1.2674e-03 
175-1.3028e-03 
176-6.3728e-03 
1774.5050e-03  
1783.9238e-03  
179-4.8420e-03 
1805.4060e-03  
181-2.1061e-04 
1821.6575e-03  
1837.6741e-03  
184-1.7102e-04 
185-1.9371e-03 
186-7.4727e-04 
187-7.7515e-03 
188-3.4590e-03 
1891.5522e-03  
1902.5196e-03  
191-4.5790e-03 
1922.3560e-03  
193-9.3642e-04 
194-7.5080e-03 
195-2.4317e-03 
196-5.0398e-03 
1971.0175e-02  
1986.8325e-03  
199-5.8709e-03 
2002.8112e-03  
201-3.4486e-03 
2029.0871e-03  
203-4.6675e-04 
2043.1873e-04  
2057.1106e-03  
206-1.1764e-02 
207-5.7850e-03 
208-1.3255e-03 
209-7.5367e-03 
210-1.2968e-02 
2118.7560e-04  
2124.6352e-03  
213-3.9470e-04 
214-2.4285e-03 
215-5.1610e-03 
216-2.1684e-03 
2172.6360e-03  
218-2.6975e-03 
219-1.7885e-03 
2202.8349e-03  
221-4.1354e-05 
2221.1284e-03  
2235.6441e-04  
224-3.4934e-03 
225-4.1582e-04 
226-1.6550e-03 
227-6.4558e-03 
228-3.6049e-03 
229-3.6501e-03 
2307.2735e-03  
231-1.7150e-03 
232-3.6946e-03 
2338.9016e-05  
234-7.3010e-04 
2356.2109e-04  
236-3.1160e-03 
237-2.2774e-03 
238-5.2449e-03 
2392.6406e-03  
2403.4746e-03  
241-7.6587e-03 
242-2.5416e-03 
243-1.6359e-03 
244-6.7534e-03 
245-4.9262e-03 
2462.3202e-03  
247-5.5725e-03 
248-2.0340e-03 
2492.0815e-03  
250-1.8048e-03 
251-2.0992e-02 
2522.8842e-03  
253-4.3979e-03 
2545.3637e-03  
255-8.4487e-03 
256-2.8380e-03 
2572.5129e-02  
2584.6548e-03  
2594.1667e-03  
260-2.1268e-03 
2614.0014e-03  
262-1.0107e-02 
263-1.0046e-04 
264-2.0454e-03 
265-8.3619e-04 
2664.4880e-03  
267-1.8740e-03 
2682.1589e-03  
269-1.9340e-03 
270-6.2270e-03 
2713.6426e-03  
272-1.5566e-04 
2739.2407e-03  
2741.4584e-03  
275-5.0211e-03 
2763.3894e-03  
277-4.2844e-03 
278-8.7457e-05 
2792.7024e-03  
2801.7868e-03  
2811.6467e-03  
282-1.9613e-03 
2838.1247e-06  
284-7.4383e-06 
285-7.7748e-04 
2862.0610e-04  
287-4.8355e-04 
288-2.4847e-04 
289-3.9813e-04 
290-1.7985e-03 
291-5.4907e-04 
2922.6783e-03  
2931.9385e-03  
2941.1511e-03  
2954.2139e-03  
296-1.4476e-03 
297-2.0732e-04 
2984.5658e-03  
2992.2310e-03  
3002.7369e-03  
301-3.0978e-03 
3023.8063e-03  
303-2.1751e-03 
3046.4873e-05  
3052.4418e-03  
3067.9037e-04  
307-5.5305e-06 
3081.9906e-03  
309-1.3504e-03 
310-3.6459e-04 
311-1.6787e-03 
3121.6471e-04  
3137.7405e-04  
314-3.7687e-04 
3152.0379e-03  
3165.8439e-04  
3175.8341e-05  
318-1.6740e-03 
319-1.1715e-03 
320-5.6943e-04 
3213.3371e-04  
3228.2233e-04  
323-5.1595e-04 
3241.6878e-03  
3251.1521e-03  
3261.0117e-03  
327-1.1268e-03 
3284.3940e-04  
329-1.0798e-03 
330-6.1413e-04 
3316.7876e-04  
3324.3985e-04  
3331.1812e-03  
3341.4209e-03  
335-1.8103e-04 
3361.4569e-03  
3371.2214e-03  
338-1.2132e-03 
3398.8195e-06  
3401.6034e-03  
341-7.7659e-04 
3423.7060e-04  
343-1.5799e-03 
3441.4178e-03  
345-4.8707e-04 
3466.6580e-04  
3471.5114e-03  
3481.7031e-04  
3492.6282e-03  
3503.1233e-03  
3513.6332e-04  
3524.3403e-04  
353-1.2362e-03 
354-2.6311e-03 
3552.1560e-03  
3561.0238e-03  
357-1.6507e-03 
358-6.1078e-05 
359-9.9719e-06 
360-1.2216e-03 
361-4.3208e-04 
362-2.1257e-05 
363-1.6203e-03 
364-1.1382e-03 
365-2.3623e-04 
366-6.3195e-04 
3671.4754e-03  
368-4.8389e-04 
369-2.6485e-03 
3703.8656e-04  
371-3.0039e-05 
3725.2979e-04  
3731.8728e-03  
3748.8754e-04  
3758.5045e-04  
376-3.3285e-03 
3771.6847e-03  
378-3.3300e-05 
379-2.8578e-03 
380-2.7043e-03 
3819.4937e-03  
3821.8910e-03  
383-8.2254e-03 
384-1.1277e-03 
385-1.0254e-02 
3862.8007e-03  
387-5.1648e-03 
388-7.8001e-03 
3891.1938e-03  
3904.1221e-03  
391-4.6989e-03 
3925.1036e-03  
3932.9146e-03  
394-1.5357e-03 
3952.4996e-04  
396-1.4184e-03 
397-2.4193e-03 
398-3.6897e-03 
399-3.3742e-03 
400-8.9871e-04 
401-1.1138e-03 
4021.0901e-03  
403-2.0838e-03 
404-1.1039e-03 
405-6.6195e-04 
406-1.2651e-03 
4079.7683e-04  
408-8.1951e-04 
409-3.3309e-03 
410-7.8182e-04 
411-4.1174e-04 
4125.7238e-04  
413-5.5361e-04 
414-1.4318e-03 
415-2.3148e-04 
4166.0942e-04  
4173.7686e-06  
4181.1738e-03  
4191.1083e-03  
4201.3181e-03  
4213.8615e-03  
422-9.5326e-04 
423-1.4037e-03 
4242.2465e-04  
425-2.5643e-03 
426-1.1976e-03 
427-2.2031e-03 
4284.4261e-04  
4291.4073e-04  
4304.5564e-04  
431-1.0488e-03 
4328.6788e-05  
4333.8741e-04  
434-4.8057e-05 
4351.4857e-05  
4362.4450e-04  
437-1.3943e-04 
438-1.0281e-04 
439-2.0495e-04 
440-4.7035e-04 
4414.4203e-04  
4429.2939e-04  
443-6.0961e-06 
4443.3009e-05  
445-3.7375e-04 
446-2.5846e-05 
4472.1217e-04  
448-1.9248e-05 
4496.4095e-04  
450-4.5484e-05 
451-2.2923e-04 
4525.8860e-04  
453-7.4246e-04 
454-1.1432e-04 
455-4.6293e-04 
456-3.6573e-04 
4578.9046e-04  
458-9.2860e-04 
4591.7113e-04  
4604.4777e-04  
4611.9155e-03  
4621.1593e-03  
463-2.5351e-03 
4641.0771e-06  
4658.7482e-04  
4664.7311e-04  
467-4.8560e-05 
468-1.4099e-03 
4697.2958e-04  
470-3.0567e-04 
471-2.8235e-03 
472-1.1609e-03 
473-1.0272e-03 
474-7.8563e-04 
475-4.3513e-04 
476-1.0328e-03 
477-1.1873e-03 
478-7.2285e-04 
479-2.4983e-04 
480-2.1187e-03 
481-1.3652e-03 
4829.8607e-05  
483-4.2401e-04 
4845.7144e-04  
4858.2826e-05  
486-8.1895e-04 
487-2.3136e-03 
488-7.3503e-04 
4898.0353e-04  
490-5.2469e-04 
491-1.1086e-04 
4922.4830e-04  
4938.8435e-04  
4947.4687e-05  
4959.3189e-06  
4962.8767e-04  
497-4.4021e-05 
498-3.6631e-04 
499-5.7733e-04 
500-3.6764e-04 
501-6.1586e-04 
502-9.4036e-04 
5036.1605e-04  
504-3.4687e-04 
5051.0036e-04  
506-6.0507e-04 
5074.0316e-04  
5083.3430e-04  
509-6.3217e-04 
510-4.0952e-04 
511-5.9402e-04 
512-3.4404e-04 
513-5.8768e-04 
514-2.2241e-04 
515-4.3386e-04 
5161.3675e-05  
517-1.7599e-04 
5181.2080e-04  
5191.0498e-04  
5203.7770e-04  
5213.8299e-04  
5221.2233e-04  
5232.5794e-05  
524-2.9433e-04 
5251.5468e-04  
526-3.2991e-04 
527-1.6452e-04 
5283.6941e-04  
529-1.8976e-04 
530-7.3997e-05 
5311.9886e-04  
5321.4006e-04  
5332.8224e-05  
5342.3468e-05  
535-1.4630e-04 
5362.1854e-04  
5374.7299e-05  
5387.6267e-05  
539-3.6883e-04 
540-7.7335e-05 
541-1.6867e-04 
5422.0632e-04  
5433.4899e-04  
5448.2526e-05  
545-1.7167e-06 
546-6.5167e-05 
547-1.3049e-05 
5483.6531e-05  
549-2.2937e-04 
5507.3040e-05  
5511.9632e-05  
5527.0614e-05  
5531.9921e-04  
5542.3798e-04  
5551.0073e-04  
5563.4618e-05  
557-1.8870e-05 
558-3.6198e-05 
559-4.9189e-05 
560-1.1673e-05 
561-1.6639e-07 
562-1.4677e-04 
5634.9812e-05  
5641.0571e-05  
5656.8481e-05  
566-1.2122e-04 
567-1.1446e-04 
5682.1445e-05  
5691.8190e-04  
570-4.5232e-05 
5711.8327e-04  
5721.1122e-04  
573-2.4950e-05 
574-7.4665e-05 
5757.7031e-05  
576-1.6903e-05 
5777.6605e-05  
5782.4716e-05  
5791.7602e-04  
580-6.0947e-05 
5811.3040e-05  
582-4.5662e-06 
5831.1806e-04  
5841.2314e-04  
5855.3736e-05  
586-2.0071e-05 
5871.1735e-04  
588-2.3073e-04 
589-1.3461e-04 
590-5.2481e-05 
591-4.3316e-05 
592-7.5687e-06 
5932.7522e-05  
594-1.2278e-04 
595-4.6810e-05 
5965.1224e-06  
5971.4697e-05  

Decomposition over AOs for the left beta Dyson orbital:
7.89229853e-05
-3.03233405e-03
5.20465472e-02
-1.16317849e-01
2.83055292e-02
3.85092917e-02
-5.35272696e-02
6.79477069e-02
1.76149210e-02
1.43134659e-01
7.49988297e-02
-4.76568626e-02
2.11921783e-01
-3.69206369e-04
-3.25967925e-02
5.95854954e-03
4.39678627e-02
-2.96626128e-02
1.40617213e-01
1.33807125e-01
-1.06225844e-01
-1.76910310e-02
6.17158470e-02
2.38299892e-02
2.31368894e-01
1.46003369e-01
1.08124975e-01
-5.17328675e-02
-3.27872903e-03
-1.48345458e-02
5.03160720e-03
-1.41074828e-02
-1.27584665e-02
1.92506595e-02
-4.33804763e-03
7.58248226e-03
-1.19996594e-02
-5.37848971e-03
7.25552413e-04
1.42531457e-02
-8.32480736e-03
-1.27949502e-01
-2.26767066e-02
3.85223366e-02
-6.84295060e-02
8.07194926e-02
4.33148606e-02
-1.64399079e-01
1.86949020e-01
-6.19762606e-02
3.26610697e-01
2.12464703e-02
-6.19844395e-02
5.84137968e-02
-4.20065178e-03
-7.10080255e-03
1.62414968e-01
-1.36919427e-01
8.05167139e-03
-2.73777214e-01
3.50083300e-01
2.84152752e-02
3.71347666e-01
-1.88882133e-01
-1.04921061e-01
5.96337351e-02
-6.57084049e-03
1.20782055e-03
-2.80999681e-02
2.10098267e-02
1.29516517e-02
-2.05769170e-02
5.61388628e-03
-3.03397980e-02
1.94083720e-02
1.90362875e-02
1.68358535e-04
-2.59610398e-03
1.18124068e-02
1.41711741e-01
-1.04246303e-01
-7.42867204e-03
-4.21139057e-02
-1.76942269e-02
-3.01655905e-02
-2.78397879e-03
9.99204802e-02
-5.62270089e-02
2.41528560e-01
5.79035869e-02
-2.02286003e-02
1.51408851e-02
-8.79699866e-03
-2.88918321e-02
1.23481818e-01
-1.02464767e-02
-2.67298694e-02
1.04621825e-01
2.73892989e-02
1.40642346e-01
-1.32462003e-01
1.07471550e-02
6.16714337e-02
2.51837015e-02
1.07651145e-02
1.13025728e-02
1.58514269e-02
-1.03213701e-02
-4.52568112e-03
6.79152687e-05
-1.90983999e-02
3.27609956e-03
-1.46415474e-02
3.92900132e-03
1.81202691e-04
-4.23523054e-03
-1.74096845e-02
-1.20227513e-01
-1.82579690e-02
-1.54265008e-02
-2.68524532e-03
-8.98840819e-02
-1.17499984e-02
6.81797522e-02
-1.09423743e-01
5.60714569e-02
-2.64194345e-01
3.52622127e-02
1.61389525e-02
-4.41933490e-02
-6.75828681e-02
-1.92092258e-02
-1.26157838e-01
-1.18429323e-01
-6.63703807e-02
-6.43267628e-02
1.06263131e-01
-9.23712988e-02
1.80509564e-01
1.48631727e-01
1.43008870e-01
9.44777743e-02
-2.54564886e-04
-8.44227741e-03
8.74165555e-03
-1.33036565e-02
-9.51567997e-03
1.70572768e-02
7.42801682e-03
2.43964535e-04
7.03732592e-03
-1.41200752e-03
8.85669781e-05
4.15628930e-03
-5.04530767e-03
-3.45057062e-02
5.88091967e-02
-6.01418480e-03
3.73768024e-02
-8.84653020e-02
1.57791993e-02
-1.42969877e-01
-1.30267165e-01
6.56482212e-02
-2.53107429e-01
-2.12369150e-02
4.87822186e-02
-3.32924969e-02
-1.03717276e-01
-6.90875719e-02
-2.44319453e-02
2.00654369e-01
-8.70535780e-02
2.11932475e-01
-1.90220626e-01
1.74487028e-01
-5.18815927e-01
-1.30699425e-01
-3.39411919e-02
-2.12782653e-01
-6.72515444e-03
2.74645046e-03
-2.45803055e-02
2.27733776e-02
1.29988785e-02
-1.84852527e-02
1.59365070e-02
-2.06233914e-02
2.18380996e-02
2.21824256e-02
1.00648023e-04
-1.33586293e-02
-4.19895860e-02
3.34949373e-02
3.34027059e-02
-2.14228511e-03
-1.01931639e-02
4.02560524e-02
-1.78661638e-02
8.50151727e-02
-8.86556037e-02
3.98961099e-02
-2.33355252e-01
8.09422132e-03
3.79640798e-02
-1.81750787e-02
-1.39552405e-01
-9.27424986e-02
-1.75093615e-01
-1.38945332e-01
-1.07969406e-02
-4.68608828e-02
-1.21972054e-01
-4.98445077e-02
-6.71631675e-02
-3.04146506e-02
-6.66090344e-02
1.25318911e-01
7.95138714e-03
1.04850900e-02
1.13650145e-02
-6.88190051e-03
-4.04388957e-03
1.49111964e-02
-1.09133560e-02
1.11344769e-02
-1.14230065e-02
-5.38607610e-03
-1.17281190e-04
-4.21538244e-03
-3.08626159e-03
-7.46470416e-04
-2.02041049e-02
-2.58648415e-03
-9.04900369e-02
9.52998894e-02
1.22827953e-01
3.65670218e-02
-2.04055189e-01
7.52913678e-02
-3.63063879e-01
-2.11397069e-02
8.51286919e-03
-4.09951682e-02
-8.40533677e-02
3.59163736e-02
-1.60331495e-01
2.27688387e-02
-1.16504027e-02
4.39315198e-02
-3.51264167e-02
6.03442223e-02
8.67954359e-03
-5.37393322e-02
-1.83708002e-01
-2.30577002e-01
-3.34425524e-04
3.74092589e-05
-1.15957285e-03
8.38735988e-04
5.18220822e-04
1.52856633e-05
-7.03535174e-04
8.31001228e-05
-9.19050634e-04
1.89894259e-04
-1.20082959e-04
5.31106077e-03
9.61968023e-03
-5.75701044e-02
-7.67946146e-02
-7.51742500e-02
1.97832307e-03
2.97344007e-02
-5.95583195e-02
4.45093019e-02
-4.02038577e-03
1.29633107e-02
-2.19794023e-02
5.41522485e-03
4.25444519e-03
2.94364176e-03
-7.03288000e-03
-2.18982051e-02
-5.86548862e-03
-1.22989471e-02
-3.08544718e-03
1.77907864e-02
-4.99702774e-02
5.67016086e-02
-1.30198253e-01
8.25431933e-02
-1.67842262e-02
-2.26720867e-02
1.11254499e-03
7.81403343e-03
-3.67280622e-03
7.37341842e-03
5.18708312e-03
-8.55054975e-05
-3.80782405e-03
3.82179124e-03
-5.87723872e-03
-5.09812713e-03
-1.66383491e-04
-2.53412971e-03
8.47623308e-04
4.46511119e-03
9.45000505e-02
-1.25596729e-02
1.62678758e-02
-1.47713891e-03
2.43262600e-02
5.35972897e-02
1.79123945e-01
-8.15689253e-02
3.44583769e-01
1.44294285e-02
-6.96163895e-03
3.31611489e-02
6.92828693e-02
-2.51915889e-02
1.30674084e-01
-4.03424066e-02
2.15467832e-02
-4.05977692e-02
7.19142299e-03
-1.12095069e-02
2.30341833e-02
8.44005291e-02
2.03734491e-02
1.54991588e-01
5.13078374e-05
2.71124515e-04
4.90006482e-05
1.34341707e-04
-3.33949678e-05
2.57381440e-04
-1.91335090e-04
5.66121263e-04
-1.85886669e-03
-3.05581214e-04
1.53530636e-04
3.52749025e-02
1.16926720e-02
7.98000401e-02
1.00149034e-01
-7.90125561e-02
-2.58748173e-02
-3.36224645e-02
1.81126732e-01
-1.26029561e-01
2.27249535e-02
1.40973967e-02
7.60216359e-02
4.60077845e-03
9.40704191e-03
7.19779943e-03
-6.58679559e-03
-8.24890227e-03
3.75850294e-02
2.71248575e-02
-7.31899166e-02
5.90870872e-02
3.81207859e-02
4.84678609e-02
-1.42604472e-02
1.02911442e-02
-1.11121075e-01
3.25987052e-01
7.29367893e-04
4.41620771e-03
-9.70610516e-04
7.06432846e-04
1.97111461e-03
-1.58581731e-03
8.28505465e-04
-2.12853680e-03
2.04241652e-03
-3.01202497e-05
-1.16841499e-03
-5.29621640e-02
-1.20275524e-02
5.14526710e-02
3.04452487e-02
-1.05972264e-01
-2.42326321e-02
-4.79763201e-02
2.23018465e-02
-1.09766366e-03
-2.79343897e-03
4.72830248e-02
-5.29409297e-02
3.86418523e-03
1.05141140e-02
-2.18849685e-02
2.71504388e-02
1.23329302e-03
-1.33903145e-02
-4.68066719e-02
-4.46038532e-02
3.84292369e-02
1.01054261e-01
3.74636031e-02
-6.70408512e-02
7.14823694e-02
8.59253199e-03
-1.00579954e-01
2.51501037e-03
3.40839623e-03
-5.05220495e-05
2.08421582e-04
6.32623030e-04
-2.70080264e-03
1.36065920e-03
3.06810480e-03
1.33229618e-03
6.95145106e-03
-9.52599186e-06
-4.01009291e-03
3.56860029e-03
3.18428975e-03
1.15903060e-01
-8.55156257e-02
4.10414064e-02
3.62579396e-02
-1.87354084e-01
5.96059348e-02
-3.15268362e-02
1.95673710e-02
-1.36931383e-01
-4.81483306e-03
2.96327752e-03
-2.35748520e-02
-3.13317607e-02
4.86780671e-03
-7.39436930e-02
7.02609602e-02
-7.52571751e-03
-2.73374345e-02
9.50270494e-03
-1.72127194e-02
6.19288283e-02
-3.54925427e-01
3.68593300e-01
-2.45456460e-01
-1.48794368e-03
-1.94463254e-03
-1.60838744e-03
8.52575622e-04
9.13698453e-05
-1.04520050e-03
-1.67423772e-03
-1.46317279e-03
4.10312273e-03
1.16514979e-03
7.71270642e-05
1.31347925e-02
-2.32140467e-03
-2.38807852e-02
-4.73450847e-02
7.25777101e-02
-1.26860227e-02
-2.62700352e-02
-2.42776361e-02
-3.04169417e-02
1.75590783e-02
-8.10280007e-03
9.53197099e-03
8.29172228e-03
-2.16724431e-03
9.74491803e-03
1.35440489e-02
-1.34192606e-03
3.15427274e-02
5.19637670e-03
4.67844477e-02
-3.25253841e-02
-4.01918556e-02
-2.29206499e-01
-1.54643173e-02
5.84434627e-02
-1.47891141e-02
1.01196570e-01
1.26312120e-03
-9.54886863e-04
-2.97664632e-04
-6.94991532e-03
6.52306427e-06
5.23944076e-04
-6.60538467e-04
3.84095811e-04
-3.97867370e-03
-1.20772058e-03
6.13670598e-02
4.88853141e-02
9.63338126e-02
-1.32505075e-01
-1.60307213e-01
9.58227061e-02
-2.98276117e-04
-2.97016408e-04
7.89085748e-05
6.10221079e-03
-8.16966846e-03
7.94584854e-03
-1.61313857e-03
-3.52625648e-04
-2.51488373e-02
4.51746376e-02
2.19015045e-01
1.66912691e-01
-1.86012998e-04
3.83282329e-04
-1.17783505e-03
-5.22580447e-04
5.51787666e-04
-1.79325571e-03
-6.47374199e-02
-4.84268299e-02
-1.33444220e-01
2.67699719e-01
1.75332429e-01
-2.27048204e-01
2.77305778e-04
5.13540649e-04
-2.38646389e-04
2.39163237e-04
1.77407721e-03
1.08281739e-02
2.58026416e-02
-1.38766638e-02
6.75242256e-02
-3.36212209e-02
2.12615113e-01
-4.74596026e-01
-6.05150601e-05
3.86858592e-04
-4.64889254e-04
-6.90547794e-03
2.33322414e-03
4.35476820e-03
-5.99585746e-03
-3.14825091e-03
9.08815925e-03
6.57362653e-02
-2.37146670e-01
8.60363407e-02
3.09393294e-04
2.94151568e-05
1.05645363e-04
-1.34929659e-03
4.11485451e-04
-5.42326119e-04
-3.25838717e-02
1.83795145e-02
1.45180124e-01
-2.75143160e-01
1.21423298e-04
5.78775091e-01
-2.83031460e-04
-8.12235019e-04
1.27834901e-03
4.02250466e-03
-3.63158080e-04
1.25791291e-02
1.30100837e-02
-2.63732213e-02
-1.84644080e-02
1.22259307e-01
-1.20409282e-01
-2.81158322e-01
-5.37800299e-04
1.81884748e-04
-1.21685578e-03
-2.72989797e-03
-6.74624946e-03
-9.12957847e-03
-6.22929021e-03
-7.68232712e-03
5.90683937e-02
3.99605242e-02
7.70015052e-02
-2.07652005e-02
-5.13733213e-04
9.24034727e-04
-5.04180175e-04
-2.56453177e-03
-1.42378928e-03
3.02201742e-03
1.25183587e-02
8.64724203e-03
2.27714323e-02
7.26474632e-02
5.78574125e-02
3.78734425e-02
3.23182369e-04
1.36447074e-03
-7.61790872e-04
-4.45250801e-03
6.75281305e-04
1.98691183e-03
7.27159264e-03
3.81815228e-03
-3.11312402e-02
-3.53476215e-02
-1.72015235e-02
-1.29134537e-02
-2.75663157e-03
1.41040640e-03
-6.78162334e-03
2.15870267e-04
7.56966022e-04
-3.80575785e-03
-1.74864051e-05
-6.49553402e-04
-2.05608574e-04
-2.33293044e-03
-6.22146471e-03
-1.15863257e-02
1.10050666e-01
1.50864818e-01
2.50623577e-03
1.77959911e-03
-1.23651178e-03
8.06519468e-04
-9.85955542e-04
-3.14871368e-04
1.41740390e-04
3.31550655e-04
-2.63651852e-03
1.04627527e-03
2.07249516e-03
3.02036850e-03
-3.10070891e-04
-1.11818703e-02
-1.98406672e-03
1.39420238e-04
9.09872387e-03
3.99112141e-03
-7.09964915e-03
3.45551866e-02
3.31318675e-07
-3.89712397e-07
-7.06361160e-07
8.37641138e-06
-1.32440493e-05
6.14841532e-05
1.45908411e-05
6.42643502e-05
-5.83871659e-05
-5.62606167e-05
-2.73481752e-04
-1.51734935e-04
3.86717248e-02
-6.83702201e-02
-2.80477673e-01
-4.10577484e-02
7.83525336e-05
-1.84281507e-05
1.17102920e-04
1.13589408e-03
-5.27799165e-04
4.99633370e-04
-4.72342690e-05
2.74456730e-03
-1.66626877e-02
4.00038393e-02
9.54197223e-02
-1.10376028e-01
2.42623280e-05
7.60712673e-06
-1.31268069e-05
-8.98695768e-04
-1.50137141e-04
2.58459522e-04
   *****

 Right Dyson orbital norm is 0.9587

Right beta Dyson orbital in the MO basis (canonical Q-Chem's ordering):
0  2.7695e-16  
1  7.3854e-17  
2  -1.0439e-16 
3  -6.7965e-15 
4  2.1112e-15  
5  8.9400e-17  
6  1.4172e-16  
7  5.3504e-16  
8  9.9532e-17  
9  4.1031e-16  
10 5.7817e-16  
11 4.6104e-16  
12 -3.2970e-16 
13 6.5633e-17  
14 -5.1649e-05 
15 -1.0243e-03 
16 7.7179e-04  
17 1.1872e-03  
18 3.1906e-05  
19 6.8458e-04  
20 4.5539e-04  
21 1.4540e-04  
22 -1.5821e-03 
23 2.4151e-04  
24 2.1521e-03  
25 2.7067e-03  
26 2.0281e-04  
27 3.1822e-03  
28 -5.7256e-04 
29 -5.8338e-06 
30 4.3461e-03  
31 2.1974e-02  
32 -3.1220e-03 
33 1.6204e-03  
34 2.0632e-02  
35 -2.2026e-02 
36 -1.0213e-02 
37 2.6426e-02  
38 -2.3286e-05 
39 -2.3472e-04 
40 3.0040e-03  
41 3.5712e-03  
42 -3.8389e-03 
43 -6.4859e-02 
44 -4.7924e-02 
45 8.1937e-03  
46 2.0611e-02  
47 2.3972e-04  
48 1.2443e-02  
49 9.7441e-03  
50 -1.4228e-02 
51 -1.0785e-02 
52 -1.2112e-02 
53 -1.2766e-03 
54 1.9984e-02  
55 4.3126e-02  
56 3.6639e-02  
57 -3.6497e-03 
58 2.6523e-03  
59 -1.9109e-03 
60 -8.9246e-01 
61 -3.1824e-01 
62 2.1445e-01  
63 3.0005e-02  
64 1.3380e-01  
65 7.1689e-02  
66 1.5199e-03  
67 3.5437e-02  
68 3.3974e-02  
69 -2.1125e-03 
70 -4.9508e-02 
71 -4.2581e-03 
72 -3.1257e-02 
73 2.9309e-03  
74 -1.5115e-02 
75 -3.6553e-02 
76 -1.7746e-02 
77 1.4803e-02  
78 9.0072e-03  
79 2.2942e-03  
80 1.7373e-02  
81 1.5665e-02  
82 -1.0789e-02 
83 1.7575e-03  
84 -1.7567e-03 
85 1.5932e-02  
86 -7.4644e-03 
87 -2.1389e-02 
88 2.3752e-02  
89 -1.1099e-02 
90 -3.1569e-03 
91 1.7457e-02  
92 -6.4497e-03 
93 8.8872e-03  
94 4.8727e-03  
95 -2.1632e-02 
96 -1.2640e-02 
97 -3.5218e-03 
98 -2.9577e-03 
99 -7.5837e-03 
100-1.2262e-03 
1017.8401e-03  
1028.6775e-03  
1031.2953e-02  
1043.1285e-03  
1051.5643e-02  
1069.4342e-03  
1078.7640e-04  
1083.1787e-03  
1095.1845e-03  
110-2.0108e-03 
111-7.7959e-03 
1126.7029e-04  
1131.3060e-02  
114-7.9901e-03 
115-8.6717e-03 
1167.9832e-04  
117-1.7480e-02 
1181.4921e-03  
1191.1744e-02  
1206.5953e-03  
121-1.1781e-03 
122-1.2161e-02 
1238.5376e-03  
124-1.6257e-02 
1257.7483e-03  
1261.4408e-04  
1274.7104e-03  
1282.4521e-03  
129-5.3848e-03 
1304.4759e-03  
131-7.5553e-04 
1326.1215e-03  
133-1.5321e-04 
134-8.2938e-03 
135-6.5013e-03 
[...]
5527.8628e-05  
553-1.2190e-05 
5545.2833e-05  
5555.8311e-05  
556-2.8969e-05 
5574.6468e-05  
558-3.1073e-05 
5591.1608e-04  
560-2.7263e-04 
5615.4444e-06  
562-2.4315e-05 
563-2.8669e-05 
5644.1101e-05  
5655.4625e-05  
566-4.5514e-05 
5678.5785e-05  
5689.5282e-06  
5694.6881e-06  
5701.8171e-06  
571-5.0552e-06 
572-5.1323e-06 
5732.2079e-05  
5741.8154e-05  
575-3.2490e-05 
576-1.2236e-05 
5774.2617e-05  
5781.0632e-05  
579-1.1762e-05 
580-3.4339e-06 
5811.9263e-05  
582-3.3291e-05 
583-1.6736e-05 
584-3.1852e-05 
5855.1938e-06  
586-2.9406e-05 
5876.3368e-05  
5884.8531e-05  
589-1.4848e-05 
590-8.6215e-05 
591-1.7583e-05 
592-3.3351e-05 
5933.6801e-05  
5942.1491e-05  
5951.1751e-05  
5967.5412e-07  
5973.5899e-06  

Decomposition over AOs for the right beta Dyson orbital:
-9.46756064e-04
-1.09486770e-02
-8.52750209e-03
8.15007784e-02
2.62137118e-02
-9.00076539e-02
1.41919229e-01
1.20134836e-01
7.23510185e-01
3.91552039e-01
-9.05444323e-04
1.39103106e-02
4.62467607e-03
8.82589770e-03
9.94070878e-03
-6.18309223e-03
1.06321953e-01
5.52396633e-02
-4.11928903e-02
1.42538852e-01
-1.88818149e-02
5.71580908e-02
-2.21198524e-01
-1.23663471e-01
-8.99318373e-02
7.98955514e-02
-1.84367100e-01
-4.94103621e-01
-6.23300949e-04
-2.85512624e-03
2.24030813e-03
1.51830697e-03
3.13820577e-03
-5.43940786e-03
-1.26385441e-03
4.42121613e-03
-1.30188882e-03
8.24329687e-03
-1.16229676e-03
-1.67133278e-02
-2.15554509e-02
1.68891142e-01
5.22229702e-02
-3.16852902e-02
1.49838226e-01
1.85958299e-01
6.88158538e-01
1.29228503e-01
-1.17140778e-02
-2.56275848e-03
2.69348715e-02
5.91699560e-03
3.34243917e-02
3.72379043e-03
6.37780000e-02
7.01547419e-03
-4.90929520e-02
-4.00903791e-01
-3.06820989e-02
6.52876745e-03
-2.65006639e-01
1.68887707e-01
1.47735670e-01
-1.69094183e-01
-1.13557220e-01
1.05779714e-01
-8.30802344e-04
-1.17300810e-03
1.74857116e-03
4.08488153e-03
-1.57361067e-03
4.32591607e-03
-5.24643090e-03
4.04712388e-03
5.48758019e-03
9.18635519e-03
-6.70150792e-04
-5.66309242e-03
1.17085751e-02
6.87754705e-02
-2.06397902e-02
-3.89412960e-02
-1.02327950e-02
-5.19792785e-02
4.44895704e-01
6.01814333e-01
1.21217905e-03
-1.41627093e-02
1.24772850e-02
-8.21569107e-03
1.99530005e-02
1.07491703e-02
-4.30465936e-02
-1.82665529e-01
3.26025471e-03
2.28948793e-01
2.12028462e-01
8.69224831e-02
1.88416365e-03
-5.48915983e-02
2.10736544e-02
-2.08860461e-01
3.00912133e-01
1.49373561e-01
-9.67943137e-04
-6.78255864e-04
3.55493093e-03
1.34422620e-03
5.24814335e-04
-2.16314449e-02
8.17181176e-03
9.47431051e-03
-2.81528051e-03
1.52186133e-03
-8.41647249e-04
-2.43990827e-02
-1.23023988e-02
-1.84528092e-01
7.36610253e-02
1.12225835e-01
-1.63896034e-01
-3.57635949e-01
-6.36560639e-01
2.02706471e-01
-7.09366541e-03
1.38675348e-02
-3.58936893e-03
-4.45531879e-03
1.32521991e-02
2.62448246e-03
-1.50948783e-02
2.26670701e-02
-8.51346295e-03
-1.00195880e-01
-5.58569960e-02
3.92851956e-03
1.09142751e-01
-8.29198000e-02
-3.77606358e-02
3.76413008e-02
-4.15937784e-03
-3.02084873e-01
1.16539433e-03
-6.60897811e-04
1.82414516e-03
1.06022149e-03
4.98152290e-04
-6.87812361e-03
2.26174517e-03
3.55330762e-03
5.63739180e-04
-1.51999988e-03
-4.04991373e-04
-1.59117733e-03
-9.37669123e-03
6.96296846e-02
6.11483529e-02
8.98429693e-02
-2.21583633e-01
4.28227222e-01
-2.92898185e-02
-5.55055859e-01
8.45612747e-03
-9.77356540e-03
1.09626252e-02
1.81986389e-03
-1.42993436e-02
-2.59803983e-03
-3.37093586e-02
-8.16823282e-02
1.81405664e-03
6.83835076e-02
8.69380705e-02
-5.71037180e-02
-8.75302083e-02
-1.33534705e-01
8.92333701e-02
1.26237454e-01
-1.76919425e-01
3.49782407e-01
8.06794829e-04
-2.46581577e-04
2.41916814e-03
1.81412359e-03
1.60648939e-04
1.10300934e-03
-2.39139824e-03
4.78095869e-03
2.19124733e-03
1.34540039e-03
-7.91109711e-04
-7.47868526e-03
-4.70998668e-03
-1.93340508e-01
1.35640037e-01
-5.51296197e-02
-3.67952109e-03
4.62635372e-01
3.83935159e-01
-4.06535029e-01
7.04907142e-03
1.08151754e-02
1.91273769e-02
1.21076332e-02
-1.01580942e-02
-3.43763082e-03
8.67146308e-02
-8.52559515e-02
-3.84416977e-02
-1.17628407e-02
-3.74467899e-02
3.09094728e-02
8.90432211e-02
3.98612049e-02
1.45655870e-02
-2.74479751e-01
2.53701458e-01
6.54164850e-02
-2.13268962e-03
-1.35328023e-03
1.65836384e-03
9.50959975e-04
-4.10686756e-04
-7.90778645e-03
1.66413397e-03
2.86569338e-03
7.77082719e-04
-2.51106758e-03
-1.03559282e-03
-3.28798411e-02
-1.05301038e-02
-5.26686093e-02
6.96941812e-02
-1.10386921e-01
2.46886608e-01
1.50807650e-01
5.90829299e-04
-1.07326231e+00
6.77256896e-03
2.01259819e-03
-1.61252454e-03
-1.99989766e-04
-1.19612950e-04
5.17119817e-04
-4.42422599e-04
-2.66862153e-03
6.18662356e-03
7.12483092e-02
5.36127035e-03
-1.76576214e-02
9.26727749e-02
-5.26824513e-02
-1.22919485e-01
1.04009206e-01
9.18949435e-02
-2.10315589e-01
-4.43423379e-05
-1.27414441e-04
-7.16780102e-05
4.21834319e-04
3.30599405e-04
-1.83755877e-04
-2.51931901e-04
-1.15141638e-04
1.00782646e-03
1.08265375e-03
-1.00841022e-03
-5.75805382e-02
-1.86132598e-03
-3.04265528e-01
-2.60024731e-01
9.36657885e-02
-5.03652373e-02
-1.00512114e-01
2.72488101e-01
-2.02518447e-01
2.16874618e-02
6.01724131e-03
7.46579466e-03
1.51931341e-02
8.49803123e-03
-4.50712273e-03
-2.41574779e-02
-3.54154036e-02
-8.00055838e-03
7.52185487e-02
-9.99107903e-02
-1.39908957e-01
-2.21109247e-02
-8.89938770e-03
-9.57230451e-02
2.80004086e-01
-1.73925759e-01
5.72323605e-02
1.30193916e-04
1.05818359e-04
6.27140922e-04
7.27339396e-04
4.66856201e-04
2.75749550e-03
-1.58660181e-03
-6.11946102e-04
8.33754207e-04
1.91024956e-03
-4.63137998e-04
-1.22158989e-02
-2.36046888e-03
-1.34295869e-02
-8.31787091e-02
-6.35311391e-02
5.21257832e-02
1.47730085e-01
-3.73182180e-01
1.90819802e-01
-8.46149559e-04
4.04339503e-03
-1.87412799e-03
-3.82558362e-04
7.41528055e-04
1.25144667e-04
4.73692468e-03
3.75941829e-03
-3.02473358e-03
2.13185662e-02
1.90301613e-04
-3.49409930e-03
-1.81195294e-02
-2.59714546e-02
1.63757316e-02
2.12326909e-02
9.64554041e-02
-7.44973225e-02
9.02354371e-05
-5.36373747e-05
3.34225137e-04
1.95756731e-05
-4.13141560e-05
7.61178597e-05
5.91257441e-06
4.63729561e-04
-1.03655064e-04
-1.98622364e-04
-1.69788529e-04
-8.59365577e-03
-1.32482327e-03
6.78798927e-03
8.03231977e-02
-2.22511802e-01
1.92486387e-01
1.27929417e-01
-2.40077566e-01
-9.35676292e-01
-2.70859702e-03
7.29050152e-03
-1.43326653e-02
-1.20230935e-04
-8.54921195e-04
-1.07727215e-03
-6.72634326e-03
-4.28560715e-03
-5.98784568e-03
-9.67917915e-03
2.76561316e-02
-1.68394624e-02
6.97171074e-02
4.76530219e-02
-2.57684655e-02
-8.80352324e-02
-1.07077781e-01
2.40154334e-02
1.64327243e-04
-1.94350516e-04
1.07261902e-04
-4.05923695e-05
6.48246963e-05
4.29799121e-04
1.75674802e-04
-1.83552208e-04
-2.98531088e-04
-3.48343581e-05
-6.60538895e-04
-3.11643354e-02
-1.20602079e-02
-1.10163868e-01
-1.77780373e-01
1.56723976e-01
-3.43676462e-02
-2.31287081e-01
4.40801663e-01
3.32390466e-01
1.58257178e-02
-1.16046483e-02
1.95240040e-02
-3.64782847e-03
-3.69833022e-03
9.23947481e-04
-3.42522711e-03
-1.24005697e-02
-4.44765848e-03
-4.69746005e-02
-2.64699878e-02
-1.57242344e-02
3.37539400e-02
5.49735792e-02
-7.23607484e-03
4.32517617e-02
-2.08839754e-02
-5.55655049e-04
3.38057661e-04
-4.97935556e-04
-2.54800158e-04
5.67848994e-04
-1.76079407e-04
-5.70284895e-04
8.53713352e-04
-6.02949683e-04
-9.11587248e-04
3.64078209e-04
-3.65241551e-04
-1.40519722e-02
-5.74644910e-03
-2.35587142e-02
2.63391344e-02
-1.62481275e-01
8.48339829e-02
-8.14639648e-02
-8.25004305e-01
-2.20369942e-01
-2.03759749e-02
6.29835361e-03
3.79585259e-03
-7.22206669e-04
4.70249493e-05
2.05097301e-05
-1.00386798e-02
-1.75912794e-03
-6.60230412e-04
-2.77290918e-03
-3.21179694e-02
-1.23379174e-02
8.97057347e-02
3.90873119e-02
-2.42322413e-02
1.24503873e-01
-1.51073398e-01
-7.27025306e-02
3.38318661e-04
-4.40836225e-05
5.95990105e-04
3.10867061e-05
-3.91502890e-04
3.64145019e-04
-1.29051092e-04
8.85194579e-04
9.04931517e-05
-9.68551150e-04
-1.27894106e-03
-5.96386516e-02
-2.48143073e-02
-1.39609847e-01
-7.61001753e-02
3.78943032e-02
-1.30442697e-01
2.81392843e-01
3.92105024e-01
-8.19486616e-02
3.25929423e-02
-2.09538008e-03
1.94213624e-02
1.71431124e-03
2.13577140e-03
-1.35132115e-04
2.78584187e-02
7.33205465e-03
2.04743176e-02
4.54223475e-02
-4.08754663e-02
-5.77336696e-04
-3.80038131e-03
4.01903797e-02
-2.18062862e-02
1.13771018e-01
-2.36102405e-02
1.90288240e-01
-5.41291673e-05
-2.33186174e-04
4.99155208e-04
-6.38386015e-05
5.35872503e-04
4.52760069e-04
1.48850120e-04
1.13503136e-03
1.32304889e-03
1.59845641e-03
-5.82387333e-03
2.32514269e-02
9.69608468e-02
-1.63190958e-01
-1.25117239e-01
8.20168704e-01
-2.42464131e-03
1.02439177e-03
-1.78509161e-03
-3.05274985e-03
2.66248072e-03
-3.80859748e-03
-2.94058895e-03
9.23988117e-03
-1.01444559e-02
-1.58042101e-01
-1.46869485e-04
2.04310475e-02
1.01235688e-03
-1.58841497e-03
-7.31440145e-04
1.38092534e-04
-5.07709141e-03
-1.58846389e-03
-2.58416158e-05
2.41175892e-02
1.83067819e-01
2.53636417e-01
8.15712469e-02
-6.03810836e-01
1.18824327e-04
-8.27108348e-05
2.10587161e-03
4.72795941e-04
7.75468531e-04
6.17309670e-04
4.33988109e-03
1.73077053e-02
5.61015727e-02
7.98284156e-02
-1.03272251e-01
-5.49336306e-01
-5.01925055e-05
-5.77694296e-04
1.90573301e-03
-5.62661375e-04
-1.02666271e-03
1.54414822e-03
-4.19502268e-03
1.37287222e-02
9.34307806e-02
5.58457232e-03
3.17176079e-01
-3.34981016e-02
4.82815139e-04
2.05259734e-03
3.22271523e-04
-2.23718081e-04
2.78213625e-03
-6.45341357e-04
-1.04040340e-02
1.39248367e-02
1.53269353e-01
-4.47487745e-02
-2.43429584e-01
1.00806480e+00
-1.58867403e-03
-1.29468810e-03
-3.04332994e-03
-2.53791991e-03
-4.36788932e-03
-8.28244963e-03
-7.19336952e-03
5.78351917e-03
2.99999826e-02
1.56124997e-02
-1.43832196e-01
1.29190230e-01
1.91227638e-04
-9.15192392e-04
-1.13645188e-03
-1.77995507e-03
-1.46279825e-03
-2.65472287e-03
-8.03249341e-03
1.89071606e-03
7.63335765e-02
-7.73434150e-02
-6.10879767e-02
5.00083213e-02
-1.85171998e-03
5.02137816e-04
1.64258698e-04
-5.48385018e-03
1.47190824e-03
-1.91583651e-03
4.59139042e-03
1.96637149e-02
1.12374791e-01
-3.77709107e-02
-3.98886614e-02
-8.74490220e-03
8.23185483e-04
4.21120560e-04
4.22936514e-04
-1.43952486e-03
-1.26417284e-03
2.09151169e-04
-1.76035778e-02
8.95475551e-03
2.98553694e-02
-1.60240911e-01
-2.42635659e-01
-7.53816515e-02
6.82140476e-05
-1.03693300e-03
-8.14276635e-04
-2.15169761e-03
-9.09028686e-05
-6.92378937e-04
-1.95195927e-03
-5.13988243e-02
-8.62880875e-03
-3.19659796e-02
-1.66188872e-01
-5.36835482e-01
3.54261422e-02
1.28617085e-01
-1.77574275e-01
9.29528800e-02
-4.90077320e-02
6.65576900e-03
-5.24773208e-03
-3.93480404e-03
5.94161929e-04
-1.30740192e-03
-2.34421650e-02
2.87107372e-03
-5.86264502e-03
-1.94638610e-02
2.72441599e-03
1.42412220e-02
-1.05150483e-01
1.07033076e-02
-2.25325337e-03
7.59816599e-02
-2.85649094e-03
-9.75542051e-03
2.19184674e-04
5.80522201e-05
2.68977352e-04
-2.11256349e-04
-6.42073118e-04
1.30214362e-04
-1.79133057e-04
1.27162728e-03
-6.26528408e-04
-3.41432570e-04
5.73251534e-03
2.46200957e-02
1.79950283e-01
7.59637580e-02
8.07469330e-02
-1.15047871e-01
1.37859776e-03
-8.05200950e-04
4.13173603e-03
6.17407202e-03
-2.08137694e-03
9.00771669e-03
4.38291695e-03
2.10198128e-02
2.98286387e-01
1.95160055e-01
-2.49685293e-01
7.20538673e-02
3.60980485e-03
-1.38468533e-05
-3.58161295e-03
1.34806568e-02
-5.76145289e-04
-8.09802163e-03
   *****

     End transition


 All requested transition properties have been computed


 Transition Properties  CPU 30.80 s  wall 3.84 s
 Total ccman2 time:   CPU 44114.23 s  wall 1594.69 s


 --------------------------------------------------------------

                    Orbital Energies (a.u.)
 --------------------------------------------------------------

 Alpha MOs
 -- Occupied --
-20.6155 -20.5967 -20.5952 -20.5828 -20.5787 -11.3816 -11.3613 -11.3438
-11.3259 -11.3034 -11.2957 -11.2946 -11.2797 -11.2559  -1.4447  -1.4197
 -1.4082  -1.3877  -1.3578  -1.1592  -1.0808  -1.0014  -0.9745  -0.9490
 -0.9173  -0.8406  -0.8168  -0.7504  -0.7137  -0.7131  -0.7107  -0.6737
 -0.6629  -0.6508  -0.6399  -0.6343  -0.6197  -0.6095  -0.5926  -0.5924
 -0.5758  -0.5634  -0.5620  -0.5489  -0.5420  -0.5251  -0.5178  -0.5127
 -0.4764  -0.4477  -0.4401  -0.4014  -0.3524
 -- Virtual --
  0.0004   0.0011   0.0012   0.0015   0.0020   0.0021   0.0024   0.0028
  0.0030   0.0031   0.0036   0.0040   0.0046   0.0056   0.0057   0.0063
  0.0065   0.0077   0.0081   0.0085   0.0087   0.0093   0.0099   0.0105
  0.0111   0.0118   0.0122   0.0124   0.0128   0.0133   0.0147   0.0152
  0.0157   0.0167   0.0173   0.0186   0.0193   0.0204   0.0205   0.0211
  0.0214   0.0221   0.0225   0.0230   0.0234   0.0234   0.0237   0.0244
  0.0247   0.0250   0.0258   0.0260   0.0265   0.0276   0.0285   0.0290
  0.0311   0.0318   0.0347   0.0356   0.0366   0.0371   0.0391   0.0396
  0.0404   0.0406   0.0422   0.0433   0.0439   0.0444   0.0451   0.0452
  0.0463   0.0467   0.0476   0.0485   0.0493   0.0504   0.0510   0.0519
  0.0525   0.0529   0.0543   0.0553   0.0557   0.0572   0.0580   0.0582
  0.0598   0.0603   0.0622   0.0631   0.0640   0.0642   0.0660   0.0676
  0.0698   0.0721   0.0728   0.0752   0.0754   0.0770   0.0777   0.0801
  0.0815   0.0843   0.0846   0.0862   0.0875   0.0887   0.0894   0.0911
  0.0929   0.0947   0.0964   0.0978   0.0992   0.1009   0.1025   0.1037
  0.1048   0.1054   0.1071   0.1084   0.1107   0.1113   0.1125   0.1132
  0.1158   0.1181   0.1190   0.1225   0.1232   0.1243   0.1265   0.1273
  0.1287   0.1304   0.1328   0.1330   0.1331   0.1349   0.1374   0.1396
  0.1416   0.1447   0.1470   0.1484   0.1487   0.1510   0.1527   0.1543
  0.1576   0.1605   0.1624   0.1633   0.1671   0.1699   0.1730   0.1757
  0.1780   0.1800   0.1811   0.1835   0.1857   0.1865   0.1891   0.1911
  0.1931   0.1960   0.2010   0.2042   0.2049   0.2073   0.2119   0.2124
  0.2148   0.2178   0.2196   0.2218   0.2269   0.2294   0.2307   0.2335
  0.2372   0.2388   0.2416   0.2441   0.2478   0.2501   0.2565   0.2611
  0.2667   0.2701   0.2718   0.2737   0.2764   0.2791   0.2808   0.2851
  0.2872   0.2885   0.2957   0.2990   0.3038   0.3081   0.3122   0.3131
  0.3201   0.3246   0.3310   0.3315   0.3353   0.3394   0.3451   0.3497
  0.3519   0.3567   0.3614   0.3677   0.3702   0.3751   0.3820   0.3828
  0.3869   0.3887   0.3936   0.3951   0.4001   0.4043   0.4057   0.4072
  0.4080   0.4127   0.4167   0.4193   0.4289   0.4395   0.4416   0.4464
  0.4483   0.4533   0.4581   0.4626   0.4661   0.4727   0.4740   0.4803
  0.4814   0.4838   0.4889   0.4919   0.4967   0.5054   0.5089   0.5144
  0.5201   0.5234   0.5271   0.5285   0.5389   0.5420   0.5435   0.5536
  0.5575   0.5629   0.5653   0.5687   0.5764   0.5781   0.5822   0.5877
  0.5928   0.5971   0.6075   0.6110   0.6228   0.6255   0.6314   0.6350
  0.6395   0.6473   0.6527   0.6688   0.6707   0.6745   0.6775   0.6799
  0.6808   0.6872   0.6949   0.7019   0.7041   0.7117   0.7130   0.7194
  0.7248   0.7266   0.7304   0.7357   0.7419   0.7506   0.7536   0.7584
  0.7656   0.7671   0.7760   0.7807   0.7855   0.7966   0.8012   0.8067
  0.8138   0.8207   0.8235   0.8276   0.8356   0.8431   0.8542   0.8576
  0.8693   0.8851   0.8886   0.8917   0.8989   0.9030   0.9127   0.9136
  0.9203   0.9423   0.9444   0.9474   0.9626   0.9720   0.9771   0.9906
  1.0067   1.0102   1.0232   1.0277   1.0411   1.0470   1.0541   1.0674
  1.0793   1.0883   1.0980   1.1077   1.1165   1.1240   1.1356   1.1534
  1.1584   1.1629   1.1699   1.1752   1.1797   1.1920   1.2019   1.2116
  1.2156   1.2326   1.2415   1.2511   1.2703   1.2744   1.2865   1.2916
  1.3143   1.3170   1.3416   1.3542   1.3607   1.3742   1.3869   1.4074
  1.4138   1.4274   1.4369   1.4466   1.4661   1.4698   1.4749   1.4855
  1.4986   1.5057   1.5251   1.5323   1.5511   1.5633   1.5661   1.5679
  1.5923   1.6048   1.6091   1.6177   1.6565   1.6591   1.6675   1.6717
  1.6814   1.6958   1.7039   1.7092   1.7252   1.7301   1.7509   1.7600
  1.7660   1.7698   1.7779   1.7911   1.7942   1.7981   1.8105   1.8185
  1.8384   1.8529   1.8641   1.8840   1.8923   1.8981   1.9169   1.9242
  1.9315   1.9435   1.9468   1.9600   1.9685   1.9746   1.9784   1.9925
  1.9988   2.0189   2.0324   2.0439   2.0471   2.0607   2.0721   2.0865
  2.1030   2.1122   2.1266   2.1456   2.1546   2.1555   2.1649   2.1824
  2.1947   2.2051   2.2103   2.2271   2.2413   2.2479   2.2610   2.2689
  2.2707   2.2796   2.2904   2.3044   2.3094   2.3196   2.3331   2.3484
  2.3562   2.3756   2.3822   2.3911   2.4164   2.4349   2.4428   2.4582
  2.4939   2.4967   2.5053   2.5180   2.5234   2.5387   2.5429   2.5733
  2.5785   2.6044   2.6260   2.6604   2.6668   2.6704   2.6900   2.7157
  2.7285   2.7428   2.7578   2.7915   2.8097   2.8135   2.8288   2.8439
  2.8857   2.9226   2.9350   2.9596   2.9664   3.0055   3.0339   3.0450
  3.0644   3.0819   3.1395   3.1455   3.1601   3.1915   3.3214   3.3487
  3.3990   3.4358   3.4789   3.5435   3.6541   3.7044   3.7062   3.7143
  3.7448   3.7614   3.8094   3.8170   3.8317   3.8581   3.8594   3.8800
  3.8946   3.9375   3.9594   3.9888   4.0208   4.0267   4.0404   4.0729
  4.0859   4.1143   4.1614   4.1849   4.1883   4.2410   4.2824   4.3023
  4.7676
 --------------------------------------------------------------

          Ground-State Mulliken Net Atomic Charges

     Atom                 Charge (a.u.)
  ----------------------------------------
      1 C                     1.328180
      2 C                     0.412063
      3 C                     0.482544
      4 C                     2.137361
      5 C                    -0.226636
      6 C                     0.550440
      7 O                    -0.972002
      8 C                     0.624373
      9 O                    -1.033224
     10 O                    -1.185605
     11 C                     1.028054
     12 O                    -1.120285
     13 C                     0.863167
     14 H                    -0.013938
     15 H                    -0.293821
     16 H                     0.075737
     17 H                    -0.206455
     18 H                    -0.599888
     19 H                    -0.212658
     20 H                    -0.178437
     21 H                    -0.197239
     22 H                    -0.370705
     23 H                    -0.901315
     24 O                    -0.277208
     25 H                     0.137886
     26 H                     0.149612
  ----------------------------------------
  Sum of atomic charges =     0.000000

 -----------------------------------------------------------------
                    Cartesian Multipole Moments
 -----------------------------------------------------------------
    Charge (ESU x 10^10)
                -0.0000
    Dipole Moment (Debye)
         X      -1.1865      Y      -0.3008      Z      -0.4388
       Tot       1.3003
    Quadrupole Moments (Debye-Ang)
        XX    -125.5452     XY       3.3077     YY     -71.5816
        XZ      -3.2968     YZ      -2.4456     ZZ     -83.6547
    Octopole Moments (Debye-Ang^2)
       XXX     178.5510    XXY      -2.6531    XYY       2.4683
       YYY       5.4427    XXZ      69.1165    XYZ     -21.7456
       YYZ      -5.0616    XZZ      -9.9954    YZZ      12.1470
       ZZZ      -8.1181
    Hexadecapole Moments (Debye-Ang^3)
      XXXX   -5796.8441   XXXY     279.4355   XXYY    -841.7236
      XYYY      18.6092   YYYY   -1449.4196   XXXZ    -466.5445
      XXYZ      10.3457   XYYZ     -35.2431   YYYZ       2.1006
      XXZZ    -685.2581   XYZZ       2.4627   YYZZ    -344.5517
      XZZZ      54.4070   YZZZ      -7.1202   ZZZZ    -471.0662
 -----------------------------------------------------------------
 Total job time:  2089.72s(wall), 54217.18s(cpu) 
 Wed May  7 12:26:34 2025

        *************************************************************
        *                                                           *
        *  Thank you very much for using Q-Chem.  Have a nice day.  *
        *                                                           *
        *************************************************************


