                  Welcome to Q-Chem
     A Quantum Leap Into The Future Of Chemistry


 Q-Chem 6.2 (devel), Q-Chem, Inc., Pleasanton, CA (2024)

 E. Epifanovsky,  A. T. B. Gilbert,  Xintian Feng,  Joonho Lee,  Yuezhi Mao,  
 N. Mardirossian,  P. Pokhilko,  A. White,  M. Wormit,  M. P. Coons,  
 A. L. Dempwolff,  Zhengting Gan,  D. Hait,  P. R. Horn,  L. D. Jacobson,  
 I. Kaliman,  J. Kussmann,  A. W. Lange,  Ka Un Lao,  D. S. Levine,  Jie Liu,  
 S. C. McKenzie,  A. F. Morrison,  K. D. Nanda,  F. Plasser,  D. R. Rehn,  
 M. L. Vidal,  Zhi-Qiang You,  Ying Zhu,  Huseyin Aksu,  B. Alam,  
 B. Albrecht,  A. Aldossary,  E. Alguire,  J. H. Andersen,  
 J. E. Arias-Martinez,  V. Athavale,  D. Barton,  K. Begam,  A. Behn,  
 N. Bellonzi,  Y. A. Bernard,  E. J. Berquist,  H. Burton,  A. Carreras,  
 K. Carter-Fenk,  Mathew Chow,  Romit Chakraborty,  Chandrima Chakravarty,  
 Junhan Chen,  A. D. Chien,  K. D. Closser,  V. Cofer-Shabica,  L. Cunha,  
 S. Dasgupta,  Jia Deng,  Joseph Dickinson,  M. de Wergifosse,  
 M. Diedenhofen,  Hainam Do,  Wenjie Dou,  S. Ehlert,  Po-Tung Fang,  
 S. Fatehi,  Qingguo Feng,  Jonathan Fetherolf,  T. Friedhoff,  
 Thomas Froitzheim,  Sarai Folkestad,  B. Ganoe,  J. Gayvert,  Qinghui Ge,  
 G. Gidofalvi,  M. Gimferrer,  M. Goldey,  Montgomery Gray,  J. Gomes,  
 C. Gonzalez-Espinoza,  S. Gulania,  A. Gunina,  J. A. Gyamfi,  
 M. W. D. Hanson-Heine,  P. H. P. Harbach,  A. W. Hauser,  M. F. Herbst,  
 M. Hernandez Vera,  M. Hodecker,  Z. C. Holden,  S. Houck,  Xunkun Huang,  
 Kerwin Hui,  B. C. Huynh,  K. Ikeda,  M. Ivanov,  Nayanthara K. Jayadev,  
 Hyunjun Ji,  Zuxin Jin,  Hanjie Jiang,  Subrata Jana,  B. Kaduk,  
 S. Kaehler,  R. Kang,  K. Khistyaev,  Jaehoon Kim,  Yongbin Kim,  
 P. Klunzinger,  Z. Koczor-Benda,  Joong Hoon Koh,  D. Kosenkov,  
 Saikiran Kotaru,  L. Koulias,  T. Kowalczyk,  C. M. Krauter,  K. Kue,  
 A. Kunitsa,  T. Kus,  A. Landau,  K. V. Lawler,  D. Lefrancois,  S. Lehtola,  
 Rain Li,  Shaozhi Li,  Tao E. Li,  Yi-Pei Li,  Jiashu Liang,  M. Liebenthal,  
 Hung-Hsuan Lin,  You-Sheng Lin,  Fenglai Liu,  Kuan-Yu Liu,  Xiao Liu,  
 M. Loipersberger,  A. Luenser,  C. Malbon,  Aniket Mandal,  Manisha,  
 A. Manjanath,  P. Manohar,  E. Mansoor,  S. F. Manzer,  Shan-Ping Mao,  
 A. V. Marenich,  T. Markovich,  S. Mason,  F. Matz,  S. A. Maurer,  
 Samuel May,  Alexandra McIsaac,  P. F. McLaughlin,  M. F. S. J. Menger,  
 J.-M. Mewes,  S. A. Mewes,  P. Morgante,  Mohammad Mostafanejad,  
 Madhubani Mukherjee,  J. W. Mullinax,  Quyen Nguyen,  Avik Kumar Ojha,  
 K. J. Oosterbaan,  Eno Paenurk,  Xiaoliang Pan,  G. Paran,  V. Parravicini,  
 Alexander C. Paul,  Suranjan K. Paul,  F. Pavosevic,  Zheng Pei,  S. Prager,  
 E. I. Proynov,  E. Ramos,  B. Rana,  A. E. Rask,  A. Rettig,  R. M. Richard,  
 F. Rob,  E. Rossomme,  T. Scheele,  M. Scheurer,  M. Schneider,  
 P. E. Schneider,  Tim K. Schramm,  N. Sergueev,  S. M. Sharada,  
 Hengyuan Shen,  W. Skomorowski,  D. W. Small,  C. J. Stein,  
 Alistair J. Sterling,  Yingli Su,  Yu-Chuan Su,  E. J. Sundstrom,  
 J. Talbot,  Zhen Tao,  J. Thirman,  Hung-Yi Tsai,  T. Tsuchimochi,  
 N. M. Tubman,  C. Utku,  S. P. Veccham,  O. Vydrov,  Rahel Weiss,  
 J. Wenzel,  Jonathan Wong,  J. Witte,  H. Wu,  Yanze Wu,  A. Yamada,  
 Chou-Hsun Yang,  Kun Yao,  S. Yeganeh,  S. R. Yost,  Qi Yu,  A. Zech,  
 F. Zeller,  Chongxiao Zhao,  Igor Ying Zhang,  Xing Zhang,  Yu Zhang,  
 D. Zuev,  A. Aspuru-Guzik,  A. T. Bell,  N. A. Besley,  K. B. Bravaya,  
 B. R. Brooks,  D. Casanova,  Jeng-Da Chai,  Hsing-Ta Chen,  S. Coriani,  
 C. J. Cramer,  A. E. DePrince, III,  R. A. DiStasio Jr.,  A. Dreuw,  
 B. D. Dunietz,  T. R. Furlani,  W. A. Goddard III,  S. Grimme,  
 S. Hammes-Schiffer,  T. Head-Gordon,  W. J. Hehre,  Chao-Ping Hsu,  
 T.-C. Jagau,  Yousung Jung,  A. Klamt,  Jing Kong,  D. S. Lambrecht,  
 Xiangyuan Li,  WanZhen Liang,  N. J. Mayhall,  C. W. McCurdy,  J. B. Neaton,  
 T. Neudecker,  C. Ochsenfeld,  J. A. Parkhill,  R. Peverati,  
 V. A. Rassolov,  Haisheng Ren,  Yihan Shao,  L. V. Slipchenko,  
 R. P. Steele,  J. E. Subotnik,  A. J. W. Thom,  A. Tkatchenko,  
 D. G. Truhlar,  T. Van Voorhis,  Fan Wang,  T. A. Wesolowski,  K. B. Whaley,  
 H. L. Woodcock III,  P. M. Zimmerman,  S. Faraji,  P. M. W. Gill,  
 M. Head-Gordon,  J. M. Herbert,  A. I. Krylov

 Contributors to earlier versions of Q-Chem not listed above: 
 R. D. Adamson,  B. Austin,  R. Baer,  J. Baker,  G. J. O. Beran,  
 K. Brandhorst,  S. T. Brown,  E. F. C. Byrd,  Arup K. Chakraborty,  
 G. K. L. Chan,  Chun-Min Chang,  Yunqing Chen,  C.-L. Cheng,  
 Siu Hung Chien,  D. M. Chipman,  D. L. Crittenden,  H. Dachsel,  
 R. J. Doerksen,  A. D. Dutoi,  R. G. Edgar,  J. Fosso-Tande,  
 L. Fusti-Molnar,  D. Ghosh,  A. Ghysels,  A. Golubeva-Zadorozhnaya,  
 J. Gonthier,  M. S. Gordon,  S. R. Gwaltney,  G. Hawkins,  J. E. Herr,  
 A. Heyden,  S. Hirata,  E. G. Hohenstein,  G. Kedziora,  F. J. Keil,  
 C. Kelley,  Jihan Kim,  R. A. King,  R. Z. Khaliullin,  P. P. Korambath,  
 W. Kurlancheek,  A. Laurent,  A. M. Lee,  M. S. Lee,  S. V. Levchenko,  
 Ching Yeh Lin,  D. Liotard,  E. Livshits,  R. C. Lochan,  I. Lotan,  
 L. A. Martinez-Martinez,  P. E. Maslen,  N. Nair,  D. P. O'Neill,  
 D. Neuhauser,  E. Neuscamman,  C. M. Oana,  R. Olivares-Amaya,  R. Olson,  
 T. M. Perrine,  B. Peters,  P. A. Pieniazek,  A. Prociuk,  Y. M. Rhee,  
 J. Ritchie,  M. A. Rohrdanz,  E. Rosta,  N. J. Russ,  H. F. Schaefer III,  
 M. W. Schmidt,  N. E. Schultz,  S. Sharma,  N. Shenvi,  C. D. Sherrill,  
 A. C. Simmonett,  A. Sodt,  T. Stein,  D. Stuck,  K. S. Thanthiriwatte,  
 V. Vanovschi,  L. Vogt,  Tao Wang,  A. Warshel,  M. A. Watson,  
 C. F. Williams,  Q. Wu,  X. Xu,  Jun Yang,  W. Zhang,  Yan Zhao

   Please cite Q-Chem as follows:
  "Software for the frontiers of quantum chemistry:
   An overview of developments in the Q-Chem 5 package"
   J. Chem. Phys. 155, 084801 (2021)
   https://doi.org/10.1063/5.0055522 (open access)

 Q-Chem 6.2.1 for Intel X86 EM64T Linux

 Parts of Q-Chem use Armadillo 9.900.5 (Nocturnal Misbehaviour).
 http://arma.sourceforge.net/

 Q-Chem begins on Tue May  6 18:39:22 2025  

 Host: r33c25n3
0

     Scratch files written to /scratch/leuven/372/vsc37243/qchem476657//
 Processing $rem in /data/leuven/372/vsc37243/qchem-dyson-EA-NoL/config/preferences:
 Processing $rem in /user/leuven/372/vsc37243/.qchemrc:

 Checking the input file for inconsistencies... 	...done.

--------------------------------------------------------------
User input:
--------------------------------------------------------------
$molecule
0 1
C 0.000000 0.000000 0.000000
C -0.746907 -1.288750 0.044623
C 0.021745 -2.569166 -0.000000
C 1.366152 -2.533838 0.002684
C 2.127142 -1.266540 0.000000
C 1.367901 0.000000 0.029472
O -1.974175 -1.313865 0.146738
C -0.788159 -3.829555 -0.019921
O 3.357976 -1.272804 -0.063246
O 2.088121 1.150859 0.124924
C 2.246402 1.877060 -1.113299
O -0.626223 1.195560 0.031403
C -1.996547 1.359569 -0.412331
H -1.445850 -3.850126 -0.896106
H -0.136224 -4.705935 -0.039243
H -1.441762 -3.880706 0.857377
H -2.694228 1.023065 0.353957
H -2.089833 2.433790 -0.580829
H -2.174155 0.811865 -1.340716
H 2.808696 1.269546 -1.830707
H 1.269558 2.153446 -1.524746
H 2.812735 2.773212 -0.858303
H 1.968018 -3.439281 -0.008013
O -2.556479 -1.284446 -2.352629
H -2.607782 -1.284840 -3.316123
H -3.488638 -1.284536 -2.103563
$end

$rem
   CCMAN2                       1
   MEM_TOTAL                    120000
   CC_MEMORY			115000
   MEM_STATIC                   2000
   !CC_BACKEND			XM
   METHOD                       cc2
   BASIS                        gen
   PURECART                     11
   AUX_BASIS                    rimp2-aug-cc-pVDZ
   N_FROZEN_CORE                fc
   EA_STATES                    [2]
   SCF_CONVERGENCE              10
   MAX_SCF_CYCLES               200
   CC_CONVERGENCE               8
   EOM_DAVIDSON_CONVERGENCE     8
   CC_TRANS_PROP		TRUE
   CC_DO_DYSON			TRUE
   CC_EOM_PROP			TRUE
   !PRINT_ORBITALS               TRUE
$end

$basis
H     0
S   4   1.00
      1.301000D+01           1.968500D-02
      1.962000D+00           1.379770D-01
      4.446000D-01           4.781480D-01
      1.220000D-01           5.012400D-01
S   1   1.00
      1.220000D-01           1.000000D+00
S   1   1.00
      0.0297400              1.0000000
S   1   1.00
      0.01487              1.0000000
S   1   1.00
      0.007435              1.0000000
S   1   1.00
      0.0037175              1.0000000
P   1   1.00
      7.270000D-01           1.0000000
P   1   1.00
      0.1410000              1.0000000
****
C     0
S   9   1.00
      6.665000D+03           6.920000D-04
      1.000000D+03           5.329000D-03
      2.280000D+02           2.707700D-02
      6.471000D+01           1.017180D-01
      2.106000D+01           2.747400D-01
      7.495000D+00           4.485640D-01
      2.797000D+00           2.850740D-01
      5.215000D-01           1.520400D-02
      1.596000D-01          -3.191000D-03
S   9   1.00
      6.665000D+03          -1.460000D-04
      1.000000D+03          -1.154000D-03
      2.280000D+02          -5.725000D-03
      6.471000D+01          -2.331200D-02
      2.106000D+01          -6.395500D-02
      7.495000D+00          -1.499810D-01
      2.797000D+00          -1.272620D-01
      5.215000D-01           5.445290D-01
      1.596000D-01           5.804960D-01
S   1   1.00
      1.596000D-01           1.000000D+00
S   1   1.00
      0.0469000              1.0000000
S   1   1.00
      0.02345              1.0000000
S   1   1.00
      0.011725              1.0000000
S   1   1.00
      0.0058625              1.0000000
S   1   1.00
      0.00293125              1.0000000
S   1   1.00
      0.00146562              1.0000000
S   1   1.00
      0.00073281              1.0000000
P   4   1.00
      9.439000D+00           3.810900D-02
      2.002000D+00           2.094800D-01
      5.456000D-01           5.085570D-01
      1.517000D-01           4.688420D-01
P   1   1.00
      1.517000D-01           1.000000D+00
P   1   1.00
      0.0404100              1.0000000
P   1   1.00
      0.020205              1.0000000
P   1   1.00
      0.0101025              1.0000000
P   1   1.00
      0.00505125              1.0000000
D   1   1.00
      5.500000D-01           1.0000000
D   1   1.00
      0.1510000              1.0000000
****
N     0
S   9   1.00
      9.046000D+03           7.000000D-04
      1.357000D+03           5.389000D-03
      3.093000D+02           2.740600D-02
      8.773000D+01           1.032070D-01
      2.856000D+01           2.787230D-01
      1.021000D+01           4.485400D-01
      3.838000D+00           2.782380D-01
      7.466000D-01           1.544000D-02
      2.248000D-01          -2.864000D-03
S   9   1.00
      9.046000D+03          -1.530000D-04
      1.357000D+03          -1.208000D-03
      3.093000D+02          -5.992000D-03
      8.773000D+01          -2.454400D-02
      2.856000D+01          -6.745900D-02
      1.021000D+01          -1.580780D-01
      3.838000D+00          -1.218310D-01
      7.466000D-01           5.490030D-01
      2.248000D-01           5.788150D-01
S   1   1.00
      2.248000D-01           1.000000D+00
S   1   1.00
      0.0612400              1.0000000
S   1   1.00
      0.03062              1.0000000
S   1   1.00
      0.01531              1.0000000
S   1   1.00
      0.007655              1.0000000
S   1   1.00
      0.0038275              1.0000000
S   1   1.00
      0.00191375              1.0000000
S   1   1.00
      0.000956875              1.0000000
P   4   1.00
      1.355000D+01           3.991900D-02
      2.917000D+00           2.171690D-01
      7.973000D-01           5.103190D-01
      2.185000D-01           4.622140D-01
P   1   1.00
      2.185000D-01           1.000000D+00
P   1   1.00
      0.0561100              1.0000000
P   1   1.00
      0.028055              1.0000000
P   1   1.00
      0.0140275              1.0000000
P   1   1.00
      0.00701375              1.0000000
D   1   1.00
      8.170000D-01           1.0000000
D   1   1.00
      0.2300000              1.0000000
****
O     0
S   9   1.00
      1.172000D+04           7.100000D-04
      1.759000D+03           5.470000D-03
      4.008000D+02           2.783700D-02
      1.137000D+02           1.048000D-01
      3.703000D+01           2.830620D-01
      1.327000D+01           4.487190D-01
      5.025000D+00           2.709520D-01
      1.013000D+00           1.545800D-02
      3.023000D-01          -2.585000D-03
S   9   1.00
      1.172000D+04          -1.600000D-04
      1.759000D+03          -1.263000D-03
      4.008000D+02          -6.267000D-03
      1.137000D+02          -2.571600D-02
      3.703000D+01          -7.092400D-02
      1.327000D+01          -1.654110D-01
      5.025000D+00          -1.169550D-01
      1.013000D+00           5.573680D-01
      3.023000D-01           5.727590D-01
S   1   1.00
      3.023000D-01           1.000000D+00
S   1   1.00
      0.0789600              1.0000000
S   1   1.00
      0.03948              1.0000000
S   1   1.00
      0.01974              1.0000000
S   1   1.00
      0.00987              1.0000000
S   1   1.00
      0.004935              1.0000000
S   1   1.00
      0.0024675              1.0000000
S   1   1.00
      0.00123375              1.0000000
P   4   1.00
      1.770000D+01           4.301800D-02
      3.854000D+00           2.289130D-01
      1.046000D+00           5.087280D-01
      2.753000D-01           4.605310D-01
P   1   1.00
      2.753000D-01           1.000000D+00
P   1   1.00
      0.0685600              1.0000000
P   1   1.00
      0.03428              1.0000000
P   1   1.00
      0.01714              1.0000000
P   1   1.00
      0.00857              1.0000000
D   1   1.00
      1.185000D+00           1.0000000
D   1   1.00
      0.3320000              1.0000000
****
S     0
S   12   1.00
      1.108000D+05           2.476350D-04
      1.661000D+04           1.920260D-03
      3.781000D+03           9.961920D-03
      1.071000D+03           4.029750D-02
      3.498000D+02           1.286040D-01
      1.263000D+02           3.034800D-01
      4.926000D+01           4.214320D-01
      2.016000D+01           2.307810D-01
      5.720000D+00           1.789710D-02
      2.182000D+00          -2.975160D-03
      4.327000D-01           8.495220D-04
      1.570000D-01          -3.679360D-04
S   12   1.00
      1.108000D+05          -6.870390D-05
      1.661000D+04          -5.276810D-04
      3.781000D+03          -2.796710D-03
      1.071000D+03          -1.126510D-02
      3.498000D+02          -3.888340D-02
      1.263000D+02          -9.950250D-02
      4.926000D+01          -1.997400D-01
      2.016000D+01          -1.233600D-01
      5.720000D+00           5.131940D-01
      2.182000D+00           6.071200D-01
      4.327000D-01           3.967530D-02
      1.570000D-01          -9.468640D-03
S   12   1.00
      1.108000D+05           1.990770D-05
      1.661000D+04           1.534830D-04
      3.781000D+03           8.095030D-04
      1.071000D+03           3.289740D-03
      3.498000D+02           1.129670D-02
      1.263000D+02           2.963850D-02
      4.926000D+01           5.998510D-02
      2.016000D+01           4.132480D-02
      5.720000D+00          -2.074740D-01
      2.182000D+00          -3.928890D-01
      4.327000D-01           6.328400D-01
      1.570000D-01           5.569240D-01
S   1   1.00
      1.570000D-01           1.000000D+00
S   1   1.00
      0.0507000              1.0000000
S   1   1.00
      0.02535              1.0000000
S   1   1.00
      0.012675              1.0000000
S   1   1.00
      0.0063375              1.0000000
S   1   1.00
      0.00316875              1.0000000
S   1   1.00
      0.00158438              1.0000000
S   1   1.00
      0.00079219              1.0000000
P   8   1.00
      3.997000D+02           4.475410D-03
      9.419000D+01           3.417080D-02
      2.975000D+01           1.442500D-01
      1.077000D+01           3.539280D-01
      4.119000D+00           4.590850D-01
      1.625000D+00           2.063830D-01
      4.726000D-01           1.021410D-02
      1.407000D-01          -6.031220D-05
P   8   1.00
      3.997000D+02          -1.162510D-03
      9.419000D+01          -8.656640D-03
      2.975000D+01          -3.908860D-02
      1.077000D+01          -9.346250D-02
      4.119000D+00          -1.479940D-01
      1.625000D+00           3.019040D-02
      4.726000D-01           5.615730D-01
      1.407000D-01           5.347760D-01
P   1   1.00
      1.407000D-01           1.000000D+00
P   1   1.00
      0.0399000              1.0000000
P   1   1.00
      0.01995              1.0000000
P   1   1.00
      0.009975              1.0000000
P   1   1.00
      0.0049875              1.0000000
D   1   1.00
      4.790000D-01           1.0000000
D   1   1.00
      0.1520000              1.0000000
****
$end

--------------------------------------------------------------
 ----------------------------------------------------------------
             Standard Nuclear Orientation (Angstroms)
    I     Atom           X                Y                Z
 ----------------------------------------------------------------
    1      C       0.2040361753    -0.5906393860    -0.4339580304
    2      C      -1.0464014467     0.2188083642    -0.4779800070
    3      C      -0.9699283628     1.6802008434    -0.1767058271
    4      C       0.2288074144     2.2475237097     0.0465938700
    5      C       1.4861231315     1.4701825716     0.0540199973
    6      C       1.4098702143     0.0226731921    -0.2294251566
    7      O      -2.1262626418    -0.2880035950    -0.7850409417
    8      C      -2.2694451426     2.4259523714    -0.1709993026
    9      O       2.5586792680     2.0126506213     0.3266798202
   10      O       2.5876983923    -0.6540298446    -0.3136756990
   11      C       2.9324850985    -1.4283331690     0.8555947804
   12      O       0.2119800151    -1.9161932259    -0.6895925756
   13      C      -0.9638547107    -2.7437038305    -0.5045910168
   14      H      -2.9503940237     2.0060685887     0.5777910566
   15      H      -2.1052754840     3.4840321346     0.0456802449
   16      H      -2.7746152998     2.3259027608    -1.1375696699
   17      H      -1.6520931533    -2.6306435515    -1.3416909141
   18      H      -0.5649324144    -3.7586097448    -0.4613290555
   19      H      -1.4730410902    -2.4947814394     0.4293200366
   20      H       3.0684944599    -0.7626496845     1.7148322291
   21      H       2.1582284668    -2.1743752580     1.0649985168
   22      H       3.8736874039    -1.9228240124     0.6138067325
   23      H       0.3363751958     3.3103443333     0.2491417124
   24      O      -2.8902493593    -0.9878237347     1.5630124849
   25      H      -3.0379534971    -1.1702487352     2.4988850446
   26      H      -3.6834001859    -1.3610051638     1.1597735125
 ----------------------------------------------------------------
 Molecular Point Group                 C1    NOp =  1
 Largest Abelian Subgroup              C1    NOp =  1
 Nuclear Repulsion Energy =         935.84808688 hartrees
 There are       53 alpha and       53 beta electrons
 Requested basis set is non-standard
 There are 348 shells and 676 basis functions
 Total memory of 120000 MB is distributed as follows: 
   MEM_STATIC is set to 2000 MB
   QALLOC/CCMAN JOB total memory use is  118000 MB
 Warning: actual memory use might exceed 120000 MB

 Total QAlloc Memory Limit 120000 MB
 Mega-Array Size      1956 MB
 MEM_STATIC part      2000 MB

 Requested basis set is rimp2-aug-cc-pVDZ
 There are 416 shells and 1284 basis functions
 A cutoff of  1.0D-14 yielded  60554 shell pairs
 There are    227470 function pairs (    246571 Cartesian)
 Smallest overlap matrix eigenvalue = 1.86E-11
 Linear dependence detected in AO basis
 Tighter screening thresholds may be required for diffuse basis sets
 Use S2THRESH > 14 and THRESH = 14 in case of SCF convergence issues
 Number of orthogonalized atomic orbitals = 593
 Maximum deviation from orthogonality = 5.713E-10

 Scale SEOQF with 1.000000e-02/1.000000e-02/1.000000e-02

 Standard Electronic Orientation quadrupole field applied
 Nucleus-field energy     =     0.0000000030 hartrees
 ================ Generating on-the-fly SAD Guess ================
 Attempting to make child job directory: /scratch/leuven/372/vsc37243/qchem476657//Frg1/
 Attempting to make child job directory: /scratch/leuven/372/vsc37243/qchem476657//Frg2/
 Attempting to make child job directory: /scratch/leuven/372/vsc37243/qchem476657//Frg3/
 Creating input file /scratch/leuven/372/vsc37243/qchem476657/Frg1.input
 using default PutDataFrgm: nothing
 calling putenv with: QCSCRATCH=/scratch/leuven/372/vsc37243/qchem476657/ 
 Spawning Job For Fragment 0
 Done Job For Fragment 0
 calling putenv with: QCSCRATCH=/scratch/leuven/372/vsc37243 
 calling putenv with: QCTHREADS=36 
 Creating input file /scratch/leuven/372/vsc37243/qchem476657/Frg2.input
 using default PutDataFrgm: nothing
 calling putenv with: QCSCRATCH=/scratch/leuven/372/vsc37243/qchem476657/ 
 Spawning Job For Fragment 1
 Done Job For Fragment 1
 calling putenv with: QCSCRATCH=/scratch/leuven/372/vsc37243 
 calling putenv with: QCTHREADS=36 
 Creating input file /scratch/leuven/372/vsc37243/qchem476657/Frg3.input
 using default PutDataFrgm: nothing
 calling putenv with: QCSCRATCH=/scratch/leuven/372/vsc37243/qchem476657/ 
 Spawning Job For Fragment 2
 Done Job For Fragment 2
 calling putenv with: QCSCRATCH=/scratch/leuven/372/vsc37243 
 calling putenv with: QCTHREADS=36 
 Time for running child jobs:  CPU 0.01 s  wall 33.08 s
 ============= Method Specific SAD Guess Constructed =============
 Guess from on-the-fly superposition of atomic densities
 Warning: Energy on first SCF cycle will be non-variational

 -----------------------------------------------------------------------
  General SCF calculation program by
  Eric Jon Sundstrom, Paul Horn, Yuezhi Mao, Dmitri Zuev, Alec White,
  David Stuck, Shaama M.S., Shane Yost, Joonho Lee, David Small,
  Daniel Levine, Susi Lehtola, Hugh Burton, Evgeny Epifanovsky,
  Bang C. Huynh
 -----------------------------------------------------------------------
 Hartree-Fock
 using 36 threads for integral computing
 -------------------------------------------------------
 OpenMP Integral computing Module                
 Release: version 1.0, May 2013, Q-Chem Inc. Pittsburgh 
 -------------------------------------------------------
 A restricted SCF calculation will be
 performed using DIIS
 SCF converges when DIIS error is below 1.0e-10
 ---------------------------------------
  Cycle       Energy         DIIS error
 ---------------------------------------
    1    -726.3513879899      2.23e-02  
    2    -721.8105206093      2.69e-03  
    3    -721.9751238809      2.17e-03  
    4    -722.1327036659      3.46e-04  
    5    -722.1395363751      1.23e-04  
    6    -722.1403279012      3.40e-05  
    7    -722.1404502313      1.62e-05  
    8    -722.1404807825      6.04e-06  
    9    -722.1404848004      2.27e-06  
   10    -722.1404853477      6.57e-07  
   11    -722.1404853918      2.56e-07  
   12    -722.1404854000      9.09e-08  
   13    -722.1404854014      4.47e-08  
   14    -722.1404854020      2.37e-08  
   15    -722.1404854022      1.09e-08  
   16    -722.1404854022      3.45e-09  
   17    -722.1404854022      1.22e-09  
   18    -722.1404854022      4.85e-10  
   19    -722.1404854022      2.54e-10  
   20    -722.1404854022      1.03e-10  
   21    -722.1404854022      5.38e-11  Convergence criterion met
 ---------------------------------------
 SCF time:   CPU 12518.64s  wall 533.00s 
 SCF   energy =  -722.14048540
 Total energy =  -722.14048540


 ------------------------------------------------------------------------------

   CCMAN2: suite of methods based on coupled cluster
           and equation of motion theories.

   Components:
   * libvmm-1.3-trunk
     by Evgeny Epifanovsky, Ilya Kaliman.
   * libtensor-2.5-trunk
     by Evgeny Epifanovsky, Michael Wormit, Dmitry Zuev, Sam Manzer, 
        Ilya Kaliman.
   * libcc-2.5-trunk
     by Evgeny Epifanovsky, Arik Landau, Tomasz Kus, Kirill Khistyaev, 
        Dmitry Zuev, Prashant Manohar, Xintian Feng, Anna Krylov, 
        Matthew Goldey, Alec White, Thomas Jagau, Kaushik Nanda, 
        Anastasia Gunina, Alexander Kunitsa, Joonho Lee.

   CCMAN original authors:
   Anna I. Krylov, C. David Sherrill, Steven R. Gwaltney,
   Edward F. C. Byrd (2000)
   Sergey V. Levchenko, Lyudmila V. Slipchenko, Tao Wang,
   Ana-Maria C. Cristian (2003)
   Piotr A. Pieniazek, C. Melania Oana, Evgeny Epifanovsky (2007)
   Prashant Manohar (2009)

 ------------------------------------------------------------------------------


 Allocating and initializing 115000MB of RAM (this may take a while)...
 Calculation will run on 36 cores.


 Alpha MOs, Restricted
 -- Occupied --                  
-20.602 -20.589 -20.584 -20.579 -20.565 -11.364 -11.349 -11.331
  1 A     2 A     3 A     4 A     5 A     6 A     7 A     8 A                  
-11.311 -11.286 -11.285 -11.283 -11.266 -11.243  -1.430  -1.406
  9 A    10 A    11 A    12 A    13 A    14 A    15 A    16 A                  
 -1.393  -1.375  -1.366  -1.145  -1.067  -0.988  -0.963  -0.935
 17 A    18 A    19 A    20 A    21 A    22 A    23 A    24 A                  
 -0.905  -0.827  -0.803  -0.737  -0.723  -0.700  -0.696  -0.661
 25 A    26 A    27 A    28 A    29 A    30 A    31 A    32 A                  
 -0.650  -0.638  -0.628  -0.623  -0.613  -0.605  -0.589  -0.580
 33 A    34 A    35 A    36 A    37 A    38 A    39 A    40 A                  
 -0.562  -0.551  -0.548  -0.538  -0.529  -0.515  -0.512  -0.499
 41 A    42 A    43 A    44 A    45 A    46 A    47 A    48 A                  
 -0.465  -0.433  -0.428  -0.387  -0.339
 49 A    50 A    51 A    52 A    53 A                                          
 -- Virtual --                   
 -0.001   0.001   0.001   0.001   0.002   0.002   0.002   0.003
 54 A    55 A    56 A    57 A    58 A    59 A    60 A    61 A                  
  0.003   0.004   0.004   0.004   0.006   0.006   0.006   0.007
 62 A    63 A    64 A    65 A    66 A    67 A    68 A    69 A                  
  0.008   0.008   0.008   0.009   0.010   0.010   0.011   0.011
 70 A    71 A    72 A    73 A    74 A    75 A    76 A    77 A                  
  0.012   0.012   0.013   0.013   0.014   0.015   0.015   0.016
 78 A    79 A    80 A    81 A    82 A    83 A    84 A    85 A                  
  0.017   0.018   0.018   0.019   0.020   0.021   0.022   0.022
 86 A    87 A    88 A    89 A    90 A    91 A    92 A    93 A                  
  0.023   0.023   0.023   0.024   0.024   0.025   0.025   0.025
 94 A    95 A    96 A    97 A    98 A    99 A   100 A   101 A                  
  0.026   0.027   0.027   0.028   0.029   0.029   0.030   0.031
102 A   103 A   104 A   105 A   106 A   107 A   108 A   109 A                  
  0.031   0.034   0.036   0.038   0.039   0.040   0.041   0.041
110 A   111 A   112 A   113 A   114 A   115 A   116 A   117 A                  
  0.043   0.044   0.044   0.045   0.046   0.047   0.048   0.048
118 A   119 A   120 A   121 A   122 A   123 A   124 A   125 A                  
  0.049   0.050   0.051   0.051   0.053   0.053   0.054   0.055
126 A   127 A   128 A   129 A   130 A   131 A   132 A   133 A                  
  0.056   0.057   0.058   0.058   0.059   0.060   0.061   0.063
134 A   135 A   136 A   137 A   138 A   139 A   140 A   141 A                  
  0.065   0.065   0.066   0.067   0.069   0.070   0.073   0.074
142 A   143 A   144 A   145 A   146 A   147 A   148 A   149 A                  
  0.076   0.077   0.078   0.080   0.081   0.083   0.086   0.087
150 A   151 A   152 A   153 A   154 A   155 A   156 A   157 A                  
  0.088   0.089   0.092   0.093   0.095   0.096   0.097   0.098
158 A   159 A   160 A   161 A   162 A   163 A   164 A   165 A                  
  0.101   0.103   0.105   0.107   0.108   0.110   0.112   0.112
166 A   167 A   168 A   169 A   170 A   171 A   172 A   173 A                  
  0.115   0.116   0.116   0.117   0.119   0.121   0.123   0.125
174 A   175 A   176 A   177 A   178 A   179 A   180 A   181 A                  
  0.127   0.128   0.130   0.132   0.133   0.135   0.136   0.139
182 A   183 A   184 A   185 A   186 A   187 A   188 A   189 A                  
  0.139   0.141   0.142   0.145   0.148   0.149   0.152   0.154
190 A   191 A   192 A   193 A   194 A   195 A   196 A   197 A                  
  0.156   0.156   0.158   0.160   0.161   0.166   0.169   0.173
198 A   199 A   200 A   201 A   202 A   203 A   204 A   205 A                  
  0.175   0.177   0.182   0.182   0.183   0.186   0.186   0.193
206 A   207 A   208 A   209 A   210 A   211 A   212 A   213 A                  
  0.194   0.195   0.196   0.199   0.204   0.205   0.208   0.212
214 A   215 A   216 A   217 A   218 A   219 A   220 A   221 A                  
  0.215   0.217   0.221   0.223   0.225   0.225   0.228   0.234
222 A   223 A   224 A   225 A   226 A   227 A   228 A   229 A                  
  0.237   0.240   0.241   0.244   0.248   0.248   0.255   0.258
230 A   231 A   232 A   233 A   234 A   235 A   236 A   237 A                  
  0.259   0.265   0.272   0.274   0.276   0.279   0.283   0.287
238 A   239 A   240 A   241 A   242 A   243 A   244 A   245 A                  
  0.291   0.292   0.293   0.296   0.298   0.304   0.310   0.315
246 A   247 A   248 A   249 A   250 A   251 A   252 A   253 A                  
  0.321   0.323   0.327   0.329   0.338   0.340   0.342   0.347
254 A   255 A   256 A   257 A   258 A   259 A   260 A   261 A                  
  0.352   0.358   0.360   0.364   0.372   0.376   0.380   0.384
262 A   263 A   264 A   265 A   266 A   267 A   268 A   269 A                  
  0.389   0.393   0.398   0.399   0.404   0.405   0.411   0.414
270 A   271 A   272 A   273 A   274 A   275 A   276 A   277 A                  
  0.415   0.422   0.431   0.435   0.438   0.439   0.447   0.452
278 A   279 A   280 A   281 A   282 A   283 A   284 A   285 A                  
  0.459   0.466   0.470   0.472   0.476   0.480   0.483   0.486
286 A   287 A   288 A   289 A   290 A   291 A   292 A   293 A                  
  0.490   0.495   0.498   0.503   0.511   0.515   0.519   0.525
294 A   295 A   296 A   297 A   298 A   299 A   300 A   301 A                  
  0.527   0.533   0.537   0.540   0.548   0.550   0.560   0.565
302 A   303 A   304 A   305 A   306 A   307 A   308 A   309 A                  
  0.567   0.573   0.577   0.582   0.583   0.587   0.591   0.601
310 A   311 A   312 A   313 A   314 A   315 A   316 A   317 A                  
  0.601   0.609   0.620   0.625   0.633   0.633   0.639   0.648
318 A   319 A   320 A   321 A   322 A   323 A   324 A   325 A                  
  0.653   0.658   0.668   0.670   0.682   0.683   0.684   0.689
326 A   327 A   328 A   329 A   330 A   331 A   332 A   333 A                  
  0.693   0.697   0.704   0.708   0.717   0.719   0.727   0.730
334 A   335 A   336 A   337 A   338 A   339 A   340 A   341 A                  
  0.736   0.738   0.747   0.750   0.760   0.761   0.764   0.766
342 A   343 A   344 A   345 A   346 A   347 A   348 A   349 A                  
  0.774   0.778   0.782   0.793   0.801   0.808   0.810   0.821
350 A   351 A   352 A   353 A   354 A   355 A   356 A   357 A                  
  0.824   0.828   0.836   0.837   0.847   0.851   0.856   0.862
358 A   359 A   360 A   361 A   362 A   363 A   364 A   365 A                  
  0.865   0.876   0.888   0.896   0.903   0.907   0.917   0.919
366 A   367 A   368 A   369 A   370 A   371 A   372 A   373 A                  
  0.928   0.946   0.952   0.960   0.965   0.976   0.983   0.985
374 A   375 A   376 A   377 A   378 A   379 A   380 A   381 A                  
  0.997   1.003   1.021   1.027   1.034   1.039   1.047   1.071
382 A   383 A   384 A   385 A   386 A   387 A   388 A   389 A                  
  1.078   1.085   1.097   1.111   1.115   1.125   1.128   1.146
390 A   391 A   392 A   393 A   394 A   395 A   396 A   397 A                  
  1.151   1.158   1.165   1.178   1.183   1.190   1.192   1.215
398 A   399 A   400 A   401 A   402 A   403 A   404 A   405 A                  
  1.221   1.233   1.248   1.253   1.274   1.284   1.297   1.303
406 A   407 A   408 A   409 A   410 A   411 A   412 A   413 A                  
  1.310   1.319   1.337   1.357   1.366   1.371   1.380   1.395
414 A   415 A   416 A   417 A   418 A   419 A   420 A   421 A                  
  1.401   1.428   1.436   1.443   1.458   1.477   1.481   1.494
422 A   423 A   424 A   425 A   426 A   427 A   428 A   429 A                  
  1.500   1.511   1.526   1.545   1.551   1.558   1.570   1.585
430 A   431 A   432 A   433 A   434 A   435 A   436 A   437 A                  
  1.600   1.623   1.629   1.637   1.666   1.679   1.683   1.685
438 A   439 A   440 A   441 A   442 A   443 A   444 A   445 A                  
  1.695   1.699   1.706   1.719   1.723   1.745   1.752   1.768
446 A   447 A   448 A   449 A   450 A   451 A   452 A   453 A                  
  1.775   1.778   1.785   1.794   1.802   1.808   1.817   1.826
454 A   455 A   456 A   457 A   458 A   459 A   460 A   461 A                  
  1.832   1.853   1.862   1.888   1.891   1.912   1.921   1.926
462 A   463 A   464 A   465 A   466 A   467 A   468 A   469 A                  
  1.934   1.953   1.958   1.959   1.964   1.981   1.989   1.998
470 A   471 A   472 A   473 A   474 A   475 A   476 A   477 A                  
  2.004   2.022   2.043   2.054   2.060   2.073   2.099   2.099
478 A   479 A   480 A   481 A   482 A   483 A   484 A   485 A                  
  2.115   2.127   2.145   2.152   2.163   2.169   2.176   2.188
486 A   487 A   488 A   489 A   490 A   491 A   492 A   493 A                  
  2.200   2.206   2.221   2.228   2.242   2.243   2.262   2.277
494 A   495 A   496 A   497 A   498 A   499 A   500 A   501 A                  
  2.285   2.288   2.297   2.307   2.311   2.326   2.328   2.351
502 A   503 A   504 A   505 A   506 A   507 A   508 A   509 A                  
  2.364   2.370   2.398   2.402   2.418   2.441   2.444   2.457
510 A   511 A   512 A   513 A   514 A   515 A   516 A   517 A                  
  2.464   2.511   2.517   2.519   2.535   2.542   2.546   2.558
518 A   519 A   520 A   521 A   522 A   523 A   524 A   525 A                  
  2.584   2.593   2.600   2.605   2.637   2.648   2.684   2.689
526 A   527 A   528 A   529 A   530 A   531 A   532 A   533 A                  
  2.704   2.732   2.744   2.755   2.761   2.798   2.810   2.833
534 A   535 A   536 A   537 A   538 A   539 A   540 A   541 A                  
  2.844   2.884   2.904   2.940   2.952   2.977   2.983   2.991
542 A   543 A   544 A   545 A   546 A   547 A   548 A   549 A                  
  3.041   3.057   3.070   3.099   3.117   3.159   3.180   3.216
550 A   551 A   552 A   553 A   554 A   555 A   556 A   557 A                  
  3.280   3.342   3.377   3.431   3.495   3.524   3.613   3.667
558 A   559 A   560 A   561 A   562 A   563 A   564 A   565 A                  
  3.727   3.737   3.788   3.823   3.830   3.857   3.860   3.873
566 A   567 A   568 A   569 A   570 A   571 A   572 A   573 A                  
  3.882   3.910   3.913   3.945   3.955   3.985   4.024   4.050
574 A   575 A   576 A   577 A   578 A   579 A   580 A   581 A                  
  4.057   4.089   4.115   4.136   4.174   4.191   4.202   4.242
582 A   583 A   584 A   585 A   586 A   587 A   588 A   589 A                  
  4.268   4.310   4.427   4.883
590 A   591 A   592 A   593 A                                                  

 Beta MOs, Restricted
 -- Occupied --                  
-20.602 -20.589 -20.584 -20.579 -20.565 -11.364 -11.349 -11.331
  1 A     2 A     3 A     4 A     5 A     6 A     7 A     8 A                  
-11.311 -11.286 -11.285 -11.283 -11.266 -11.243  -1.430  -1.406
  9 A    10 A    11 A    12 A    13 A    14 A    15 A    16 A                  
 -1.393  -1.375  -1.366  -1.145  -1.067  -0.988  -0.963  -0.935
 17 A    18 A    19 A    20 A    21 A    22 A    23 A    24 A                  
 -0.905  -0.827  -0.803  -0.737  -0.723  -0.700  -0.696  -0.661
 25 A    26 A    27 A    28 A    29 A    30 A    31 A    32 A                  
 -0.650  -0.638  -0.628  -0.623  -0.613  -0.605  -0.589  -0.580
 33 A    34 A    35 A    36 A    37 A    38 A    39 A    40 A                  
 -0.562  -0.551  -0.548  -0.538  -0.529  -0.515  -0.512  -0.499
 41 A    42 A    43 A    44 A    45 A    46 A    47 A    48 A                  
 -0.465  -0.433  -0.428  -0.387  -0.339
 49 A    50 A    51 A    52 A    53 A                                          
 -- Virtual --                   
 -0.001   0.001   0.001   0.001   0.002   0.002   0.002   0.003
 54 A    55 A    56 A    57 A    58 A    59 A    60 A    61 A                  
  0.003   0.004   0.004   0.004   0.006   0.006   0.006   0.007
 62 A    63 A    64 A    65 A    66 A    67 A    68 A    69 A                  
  0.008   0.008   0.008   0.009   0.010   0.010   0.011   0.011
 70 A    71 A    72 A    73 A    74 A    75 A    76 A    77 A                  
  0.012   0.012   0.013   0.013   0.014   0.015   0.015   0.016
 78 A    79 A    80 A    81 A    82 A    83 A    84 A    85 A                  
  0.017   0.018   0.018   0.019   0.020   0.021   0.022   0.022
 86 A    87 A    88 A    89 A    90 A    91 A    92 A    93 A                  
  0.023   0.023   0.023   0.024   0.024   0.025   0.025   0.025
 94 A    95 A    96 A    97 A    98 A    99 A   100 A   101 A                  
  0.026   0.027   0.027   0.028   0.029   0.029   0.030   0.031
102 A   103 A   104 A   105 A   106 A   107 A   108 A   109 A                  
  0.031   0.034   0.036   0.038   0.039   0.040   0.041   0.041
110 A   111 A   112 A   113 A   114 A   115 A   116 A   117 A                  
  0.043   0.044   0.044   0.045   0.046   0.047   0.048   0.048
118 A   119 A   120 A   121 A   122 A   123 A   124 A   125 A                  
  0.049   0.050   0.051   0.051   0.053   0.053   0.054   0.055
126 A   127 A   128 A   129 A   130 A   131 A   132 A   133 A                  
  0.056   0.057   0.058   0.058   0.059   0.060   0.061   0.063
134 A   135 A   136 A   137 A   138 A   139 A   140 A   141 A                  
  0.065   0.065   0.066   0.067   0.069   0.070   0.073   0.074
142 A   143 A   144 A   145 A   146 A   147 A   148 A   149 A                  
  0.076   0.077   0.078   0.080   0.081   0.083   0.086   0.087
150 A   151 A   152 A   153 A   154 A   155 A   156 A   157 A                  
  0.088   0.089   0.092   0.093   0.095   0.096   0.097   0.098
158 A   159 A   160 A   161 A   162 A   163 A   164 A   165 A                  
  0.101   0.103   0.105   0.107   0.108   0.110   0.112   0.112
166 A   167 A   168 A   169 A   170 A   171 A   172 A   173 A                  
  0.115   0.116   0.116   0.117   0.119   0.121   0.123   0.125
174 A   175 A   176 A   177 A   178 A   179 A   180 A   181 A                  
  0.127   0.128   0.130   0.132   0.133   0.135   0.136   0.139
182 A   183 A   184 A   185 A   186 A   187 A   188 A   189 A                  
  0.139   0.141   0.142   0.145   0.148   0.149   0.152   0.154
190 A   191 A   192 A   193 A   194 A   195 A   196 A   197 A                  
  0.156   0.156   0.158   0.160   0.161   0.166   0.169   0.173
198 A   199 A   200 A   201 A   202 A   203 A   204 A   205 A                  
  0.175   0.177   0.182   0.182   0.183   0.186   0.186   0.193
206 A   207 A   208 A   209 A   210 A   211 A   212 A   213 A                  
  0.194   0.195   0.196   0.199   0.204   0.205   0.208   0.212
214 A   215 A   216 A   217 A   218 A   219 A   220 A   221 A                  
  0.215   0.217   0.221   0.223   0.225   0.225   0.228   0.234
222 A   223 A   224 A   225 A   226 A   227 A   228 A   229 A                  
  0.237   0.240   0.241   0.244   0.248   0.248   0.255   0.258
230 A   231 A   232 A   233 A   234 A   235 A   236 A   237 A                  
  0.259   0.265   0.272   0.274   0.276   0.279   0.283   0.287
238 A   239 A   240 A   241 A   242 A   243 A   244 A   245 A                  
  0.291   0.292   0.293   0.296   0.298   0.304   0.310   0.315
246 A   247 A   248 A   249 A   250 A   251 A   252 A   253 A                  
  0.321   0.323   0.327   0.329   0.338   0.340   0.342   0.347
254 A   255 A   256 A   257 A   258 A   259 A   260 A   261 A                  
  0.352   0.358   0.360   0.364   0.372   0.376   0.380   0.384
262 A   263 A   264 A   265 A   266 A   267 A   268 A   269 A                  
  0.389   0.393   0.398   0.399   0.404   0.405   0.411   0.414
270 A   271 A   272 A   273 A   274 A   275 A   276 A   277 A                  
  0.415   0.422   0.431   0.435   0.438   0.439   0.447   0.452
278 A   279 A   280 A   281 A   282 A   283 A   284 A   285 A                  
  0.459   0.466   0.470   0.472   0.476   0.480   0.483   0.486
286 A   287 A   288 A   289 A   290 A   291 A   292 A   293 A                  
  0.490   0.495   0.498   0.503   0.511   0.515   0.519   0.525
294 A   295 A   296 A   297 A   298 A   299 A   300 A   301 A                  
  0.527   0.533   0.537   0.540   0.548   0.550   0.560   0.565
302 A   303 A   304 A   305 A   306 A   307 A   308 A   309 A                  
  0.567   0.573   0.577   0.582   0.583   0.587   0.591   0.601
310 A   311 A   312 A   313 A   314 A   315 A   316 A   317 A                  
  0.601   0.609   0.620   0.625   0.633   0.633   0.639   0.648
318 A   319 A   320 A   321 A   322 A   323 A   324 A   325 A                  
  0.653   0.658   0.668   0.670   0.682   0.683   0.684   0.689
326 A   327 A   328 A   329 A   330 A   331 A   332 A   333 A                  
  0.693   0.697   0.704   0.708   0.717   0.719   0.727   0.730
334 A   335 A   336 A   337 A   338 A   339 A   340 A   341 A                  
  0.736   0.738   0.747   0.750   0.760   0.761   0.764   0.766
342 A   343 A   344 A   345 A   346 A   347 A   348 A   349 A                  
  0.774   0.778   0.782   0.793   0.801   0.808   0.810   0.821
350 A   351 A   352 A   353 A   354 A   355 A   356 A   357 A                  
  0.824   0.828   0.836   0.837   0.847   0.851   0.856   0.862
358 A   359 A   360 A   361 A   362 A   363 A   364 A   365 A                  
  0.865   0.876   0.888   0.896   0.903   0.907   0.917   0.919
366 A   367 A   368 A   369 A   370 A   371 A   372 A   373 A                  
  0.928   0.946   0.952   0.960   0.965   0.976   0.983   0.985
374 A   375 A   376 A   377 A   378 A   379 A   380 A   381 A                  
  0.997   1.003   1.021   1.027   1.034   1.039   1.047   1.071
382 A   383 A   384 A   385 A   386 A   387 A   388 A   389 A                  
  1.078   1.085   1.097   1.111   1.115   1.125   1.128   1.146
390 A   391 A   392 A   393 A   394 A   395 A   396 A   397 A                  
  1.151   1.158   1.165   1.178   1.183   1.190   1.192   1.215
398 A   399 A   400 A   401 A   402 A   403 A   404 A   405 A                  
  1.221   1.233   1.248   1.253   1.274   1.284   1.297   1.303
406 A   407 A   408 A   409 A   410 A   411 A   412 A   413 A                  
  1.310   1.319   1.337   1.357   1.366   1.371   1.380   1.395
414 A   415 A   416 A   417 A   418 A   419 A   420 A   421 A                  
  1.401   1.428   1.436   1.443   1.458   1.477   1.481   1.494
422 A   423 A   424 A   425 A   426 A   427 A   428 A   429 A                  
  1.500   1.511   1.526   1.545   1.551   1.558   1.570   1.585
430 A   431 A   432 A   433 A   434 A   435 A   436 A   437 A                  
  1.600   1.623   1.629   1.637   1.666   1.679   1.683   1.685
438 A   439 A   440 A   441 A   442 A   443 A   444 A   445 A                  
  1.695   1.699   1.706   1.719   1.723   1.745   1.752   1.768
446 A   447 A   448 A   449 A   450 A   451 A   452 A   453 A                  
  1.775   1.778   1.785   1.794   1.802   1.808   1.817   1.826
454 A   455 A   456 A   457 A   458 A   459 A   460 A   461 A                  
  1.832   1.853   1.862   1.888   1.891   1.912   1.921   1.926
462 A   463 A   464 A   465 A   466 A   467 A   468 A   469 A                  
  1.934   1.953   1.958   1.959   1.964   1.981   1.989   1.998
470 A   471 A   472 A   473 A   474 A   475 A   476 A   477 A                  
  2.004   2.022   2.043   2.054   2.060   2.073   2.099   2.099
478 A   479 A   480 A   481 A   482 A   483 A   484 A   485 A                  
  2.115   2.127   2.145   2.152   2.163   2.169   2.176   2.188
486 A   487 A   488 A   489 A   490 A   491 A   492 A   493 A                  
  2.200   2.206   2.221   2.228   2.242   2.243   2.262   2.277
494 A   495 A   496 A   497 A   498 A   499 A   500 A   501 A                  
  2.285   2.288   2.297   2.307   2.311   2.326   2.328   2.351
502 A   503 A   504 A   505 A   506 A   507 A   508 A   509 A                  
  2.364   2.370   2.398   2.402   2.418   2.441   2.444   2.457
510 A   511 A   512 A   513 A   514 A   515 A   516 A   517 A                  
  2.464   2.511   2.517   2.519   2.535   2.542   2.546   2.558
518 A   519 A   520 A   521 A   522 A   523 A   524 A   525 A                  
  2.584   2.593   2.600   2.605   2.637   2.648   2.684   2.689
526 A   527 A   528 A   529 A   530 A   531 A   532 A   533 A                  
  2.704   2.732   2.744   2.755   2.761   2.798   2.810   2.833
534 A   535 A   536 A   537 A   538 A   539 A   540 A   541 A                  
  2.844   2.884   2.904   2.940   2.952   2.977   2.983   2.991
542 A   543 A   544 A   545 A   546 A   547 A   548 A   549 A                  
  3.041   3.057   3.070   3.099   3.117   3.159   3.180   3.216
550 A   551 A   552 A   553 A   554 A   555 A   556 A   557 A                  
  3.280   3.342   3.377   3.431   3.495   3.524   3.613   3.667
558 A   559 A   560 A   561 A   562 A   563 A   564 A   565 A                  
  3.727   3.737   3.788   3.823   3.830   3.857   3.860   3.873
566 A   567 A   568 A   569 A   570 A   571 A   572 A   573 A                  
  3.882   3.910   3.913   3.945   3.955   3.985   4.024   4.050
574 A   575 A   576 A   577 A   578 A   579 A   580 A   581 A                  
  4.057   4.089   4.115   4.136   4.174   4.191   4.202   4.242
582 A   583 A   584 A   585 A   586 A   587 A   588 A   589 A                  
  4.268   4.310   4.427   4.883
590 A   591 A   592 A   593 A                                                  

 Occupation and symmetry of molecular orbitals

 Point group: C1 (1 irreducible representation).

                           A     All 
 -------------------------------------
 All molecular orbitals:
  - Alpha                  593   593 
  - Beta                   593   593 
 -------------------------------------
 Alpha orbitals:
  - Frozen occupied        14    14  
  - Active occupied        39    39  
  - Active virtual         540   540 
  - Frozen virtual         0     0   
 -------------------------------------
 Beta orbitals:
  - Frozen occupied        14    14  
  - Active occupied        39    39  
  - Active virtual         540   540 
  - Frozen virtual         0     0   
 -------------------------------------

 Import integrals:   CPU 0.00 s  wall 0.00 s

 Import integrals:   CPU 1205.47 s  wall 35.61 s


 MP2  CPU 698.07 s  wall 25.92 s
Running a double precision version
           RI-CC2 T amplitudes will be solved using DIIS.

           Start     Size      MaxIter   EConv     TConv     
           3         7         100       1.00e-08  1.00e-07  
 ------------------------------------------------------------------------------
           Energy (a.u.)   Ediff      Tdiff       Comment
 ------------------------------------------------------------------------------
        -724.3837702648                           
     1  -724.3819514663   1.82e-03   1.54e+00     
     2  -724.4119071611   3.00e-02   7.21e-02     
     3  -724.4143821726   2.48e-03   4.96e-02     
     4  -724.4192845487   4.90e-03   1.66e-02     Switched to DIIS steps.
     5  -724.4224386563   3.15e-03   1.96e-02     
     6  -724.4228146566   3.76e-04   3.50e-03     
     7  -724.4228521626   3.75e-05   2.73e-03     
     8  -724.4228491902   2.97e-06   9.04e-04     
     9  -724.4228690736   1.99e-05   5.39e-04     
    10  -724.4228796946   1.06e-05   2.59e-04     
    11  -724.4228795173   1.77e-07   1.43e-04     
    12  -724.4228823291   2.81e-06   1.31e-04     
    13  -724.4228801582   2.17e-06   4.90e-05     
    14  -724.4228795979   5.60e-07   2.35e-05     
    15  -724.4228789975   6.00e-07   1.32e-05     
    16  -724.4228785787   4.19e-07   7.67e-06     
    17  -724.4228784431   1.36e-07   5.86e-06     
    18  -724.4228783423   1.01e-07   2.95e-06     
    19  -724.4228783129   2.94e-08   1.95e-06     
    20  -724.4228783190   6.12e-09   1.16e-06     
    21  -724.4228783160   3.08e-09   4.83e-07     
    22  -724.4228783174   1.45e-09   4.70e-07     
    23  -724.4228783178   3.94e-10   2.49e-07     
    24  -724.4228783152   2.55e-09   1.57e-07     
    25  -724.4228783149   3.70e-10   7.96e-08     
 ------------------------------------------------------------------------------
        -724.4228783149                           CC2 T converged.

End of double precision
 SCF energy                 = -722.14048540
 MP2 energy                 = -724.38377026
 CC2 correlation energy    =   -2.28239291
 CC2 total energy          = -724.42287831

 CC2  T1^2 = 0.0624  T2^2 = 0.7777  Leading amplitudes:

 Amplitude    Orbitals with energies
 -0.0622       45 (A) A                  ->    87 (A) A                   
              -0.5290                          0.0179                     
 -0.0622       45 (A) B                  ->    87 (A) B                   
              -0.5290                          0.0179                     
  0.0276       45 (A) A                  ->    86 (A) A                   
              -0.5290                          0.0172                     
  0.0276       45 (A) B                  ->    86 (A) B                   
              -0.5290                          0.0172                     

 Amplitude    Orbitals with energies
 -0.0498       52 (A) A      52 (A) B    ->    87 (A) A      87 (A) B     
              -0.3874       -0.3874            0.0179        0.0179       
  0.0498       52 (A) A      52 (A) B    ->    87 (A) B      87 (A) A     
              -0.3874       -0.3874            0.0179        0.0179       
  0.0498       52 (A) B      52 (A) A    ->    87 (A) A      87 (A) B     
              -0.3874       -0.3874            0.0179        0.0179       
 -0.0498       52 (A) B      52 (A) A    ->    87 (A) B      87 (A) A     
              -0.3874       -0.3874            0.0179        0.0179       

 Computing CC2 intermediates for later calculations in double precision
 Finished.


 CC2  CPU 36501.77 s  wall 1170.39 s
        Solving for EOMEA-CC2/MP2 A transitions.

Running a double precision version
      RI-EOMEA-CC2/MP2 right amplitudes will be solved using Davidson.
        Amplitudes will be solved using standard  algorithm.
     Hard-coded thresholds: 
     LinDepThresh=1.00e-15  NormThresh=1.00e-06  ReorthogonThresh=1.00e-02

      Roots     MaxVec    MaxIter   Precond   Conv      Shift    
      2         120       60        1         1.00e-08  0.00e+00  
 ------------------------------------------------------------------------------
      Iter ConvRoots NVecs ResNorm^2 Current eigenvalues (eV)
 ------------------------------------------------------------------------------
      0    0      2     6.17e-04   -0.0108   0.0289   
      1    0      4     4.19e-04   -0.0262   0.0277   
      2    0      6     1.63e-04   -0.0592   0.0268   
      3    0      8     1.23e-04   -0.0673   0.0248   
      4    0      10    8.05e-05   -0.0711   0.0203   
      5    0      12    2.15e-04   -0.0780   0.0185   
      6    0      14    5.01e-03   -0.9395   -0.0675   
      7    0      16    1.57e-03   -1.3581   -0.0695   
      8    0      18    2.44e-04   -1.4263   -0.0700   
      9    0      20    4.46e-05   -1.4361   -0.0701   
      10   0      22    6.86e-06   -1.4382   -0.0702   
      11   0      24    2.08e-06   -1.4384   -0.0702   
      12   0      26    3.18e-07   -1.4384   -0.0702   
      13   1      28    6.24e-08   -1.4384   -0.0702*  
      14   1      29    1.84e-08   -1.4385   -0.0702*  
      15   2      30    4.23e-09   -1.4384*  -0.0702*  

     Davidson procedure converged

 EOMEA transition 1/A
 Total energy = -724.47574014 a.u.  Excitation energy = -1.4384 eV.
 R1^2 = 0.9059  R2^2 = 0.0941  Res^2 = 6.02e-09
 Conv-d = yes

 Amplitude    Transitions between orbitals
  0.8139       infty       ->    87 (A) B                   
 -0.3620       infty       ->    86 (A) B                   
 -0.1352       infty       ->    83 (A) B                   
 -0.1306       infty       ->    93 (A) B                   
  0.1197       infty       ->    84 (A) B                   
  0.1130       infty       ->    90 (A) B                   
 -0.1022       infty       ->    89 (A) B                   

              Summary of significant orbitals:

               Number  Type             Irrep      Energy
               83      Vir  Beta       83 (A)      0.0147
               84      Vir  Beta       84 (A)      0.0155
               86      Vir  Beta       86 (A)      0.0172
               87      Vir  Beta       87 (A)      0.0179
               89      Vir  Beta       89 (A)      0.0191
               90      Vir  Beta       90 (A)      0.0201
               93      Vir  Beta       93 (A)      0.0219


 EOMEA transition 2/A
 Total energy = -724.42545764 a.u.  Excitation energy = -0.0702 eV.
 R1^2 = 0.9950  R2^2 = 0.0050  Res^2 = 2.45e-09
 Conv-d = yes

 Amplitude    Transitions between orbitals
  0.8509       infty       ->    54 (A) B                   
  0.2491       infty       ->    57 (A) B                   
  0.1941       infty       ->    58 (A) B                   
 -0.1802       infty       ->    56 (A) B                   
  0.1635       infty       ->    65 (A) B                   
 -0.1261       infty       ->    66 (A) B                   
  0.1105       infty       ->    64 (A) B                   

              Summary of significant orbitals:

               Number  Type             Irrep      Energy
               54      Vir  Beta       54 (A)     -0.0006
               56      Vir  Beta       56 (A)      0.0012
               57      Vir  Beta       57 (A)      0.0013
               58      Vir  Beta       58 (A)      0.0018
               64      Vir  Beta       64 (A)      0.0043
               65      Vir  Beta       65 (A)      0.0045
               66      Vir  Beta       66 (A)      0.0057


Running a double precision version
      RI-EOMEA-CC2/MP2 left amplitudes will be solved using Davidson.
        Amplitudes will be solved using MOM  algorithm.
     Hard-coded thresholds: 
     LinDepThresh=1.00e-15  NormThresh=1.00e-06  ReorthogonThresh=1.00e-02

      Roots     MaxVec    MaxIter   Precond   Conv      Shift    
      2         120       60        1         1.00e-08  0.00e+00  
 ------------------------------------------------------------------------------
      Iter ConvRoots NVecs ResNorm^2 Current eigenvalues (eV)
 ------------------------------------------------------------------------------
      0    0      2     5.00e-03   -1.4384   -0.0702   
      1    0      4     2.10e-03   -1.4384   -0.0702   
      2    0      6     8.14e-05   -1.4384   -0.0702   
      3    0      8     7.80e-06   -1.4384   -0.0702   
      4    0      10    1.62e-06   -1.4384   -0.0702   
      5    0      12    1.32e-07   -1.4384   -0.0702   
      6    1      14    1.10e-07   -1.4384   -0.0702*  
      7    1      15    1.54e-08   -1.4384   -0.0702*  
      8    2      16    9.33e-09   -1.4384*  -0.0702*  

     Davidson procedure converged

 Excited state properties for  EOMEA-CC2 transition 1/A
 Dipole moment (a.u.): 3.192574 (X -1.966928, Y -2.144289, Z 1.313679)
 R-squared (a.u.): 2963.923035 (XX 1556.413875, YY 1147.120883, ZZ 260.388277)
 Gauge origin (a.u.): (0.000000, 0.000000, 0.000000)
 Angular momentum (a.u.) against gauge origin: 
 (X -0.049853i, Y -0.060329i, Z -0.051278i)
 Traces of the OPDMs: Tr(AA) 53.000000, Tr(BB) 54.000000

 Excited state properties for  EOMEA-CC2 transition 2/A
 Dipole moment (a.u.): 10.638974 (X 7.843193, Y 4.097873, Z -5.905890)
 R-squared (a.u.): 3369.438769 (XX 1723.442747, YY 1252.419236, ZZ 393.576786)
 Gauge origin (a.u.): (0.000000, 0.000000, 0.000000)
 Angular momentum (a.u.) against gauge origin: 
 (X -0.035596i, Y -0.057237i, Z -0.031810i)
 Traces of the OPDMs: Tr(AA) 53.000000, Tr(BB) 54.000000


 EOMEA-CC2  CPU 9249.94 s  wall 421.64 s

 Start computing the transition properties

 ------------------------------------------------------------------------------
 State A: eomea_cc2/b: 1/A
 State B: cc2: 0/A

       ***    Dyson orbital calculation   *** 

 EOM-EA-CC2 state  1/A -- Reference  transition
 Energy difference = -1.4384 eV.

 Left Dyson orbital norm is 0.9587

Left beta Dyson orbital in the MO basis (canonical Q-Chem's ordering):
0  -9.9537e-16 
1  3.7942e-16  
2  -4.7230e-17 
3  5.9173e-16  
4  1.6638e-15  
5  1.0513e-15  
6  -4.5028e-16 
7  1.4141e-15  
8  -7.8882e-16 
9  1.7159e-15  
10 3.9960e-16  
11 -7.6206e-16 
12 2.6523e-16  
13 1.8203e-16  
14 2.5563e-04  
15 -7.2054e-04 
16 1.0057e-03  
17 1.1987e-03  
18 -3.3807e-04 
19 8.7595e-04  
20 4.5681e-04  
21 1.3423e-05  
22 1.6708e-03  
23 -7.8807e-05 
24 -1.7306e-03 
25 -2.7300e-03 
26 2.2792e-04  
27 -2.8594e-03 
28 2.5557e-03  
29 8.8353e-04  
30 4.2914e-03  
31 -2.2157e-02 
32 3.3360e-03  
33 -2.0611e-03 
34 -2.4099e-02 
35 2.1493e-02  
36 7.1703e-03  
37 -1.7265e-04 
38 -1.9550e-02 
39 1.6722e-03  
40 4.5595e-03  
41 4.6082e-03  
42 9.1234e-03  
43 2.4665e-02  
44 8.0261e-02  
45 -1.0706e-02 
46 1.3193e-02  
47 1.3680e-02  
48 1.2758e-02  
49 1.1025e-02  
50 -1.2753e-02 
51 1.0272e-02  
52 1.2746e-02  
53 8.3386e-03  
54 2.3175e-04  
55 -9.4524e-03 
56 4.2194e-03  
57 -1.8339e-04 
58 -5.8083e-04 
59 7.9046e-04  
60 -5.5898e-03 
61 6.7781e-03  
62 -1.2727e-03 
63 1.8932e-02  
64 7.7266e-03  
65 4.6020e-03  
66 -3.7209e-03 
67 1.7110e-02  
68 8.6071e-03  
69 9.5238e-03  
70 2.3611e-02  
71 -2.1859e-02 
72 1.0088e-02  
73 -9.8242e-03 
74 -4.9228e-02 
75 -2.5891e-02 
76 2.0707e-02  
77 -1.1170e-02 
78 4.9092e-03  
79 -2.8621e-02 
80 9.7044e-03  
81 6.1718e-04  
82 -1.4208e-01 
83 1.2535e-01  
84 -6.9409e-02 
85 -3.7890e-01 
86 8.5114e-01  
87 -4.2167e-02 
88 -1.0666e-01 
89 1.1824e-01  
90 6.5755e-02  
91 2.7521e-02  
92 -1.3599e-01 
93 -2.3955e-02 
94 -3.3344e-02 
95 -5.7095e-02 
96 5.3018e-02  
97 -2.2477e-03 
98 3.0467e-02  
99 1.7533e-02  
1002.3878e-02  
101-5.0225e-04 
102-4.1862e-03 
103-1.0707e-02 
104-3.7706e-03 
105-4.6072e-02 
1068.5488e-03  
1073.3365e-02  
1083.0326e-02  
109-1.8296e-02 
110-2.2235e-03 
111-1.4189e-02 
112-2.5374e-02 
1139.6503e-03  
1144.8734e-03  
115-1.1650e-02 
116-1.8053e-02 
1172.4480e-02  
1181.6478e-02  
1191.4361e-02  
120-8.0241e-04 
1211.0433e-02  
122-1.2732e-03 
1233.4514e-03  
124-1.6751e-02 
125-9.8563e-03 
1265.4221e-04  
1274.7284e-04  
128-5.5930e-03 
1298.8356e-03  
130-5.4124e-03 
131-1.1684e-02 
1323.5729e-03  
1332.1404e-02  
1343.8807e-04  
1352.2663e-04  
136-8.7642e-04 
137-8.4223e-03 
1382.7760e-03  
1398.4487e-03  
1407.9052e-03  
141-1.0228e-02 
142-7.1902e-03 
1431.1553e-02  
144-3.3061e-04 
145-3.4251e-03 
146-4.9088e-03 
147-5.0226e-03 
148-1.5864e-03 
149-3.4697e-03 
150-2.7915e-03 
1512.8468e-03  
152-7.5323e-03 
153-1.0998e-02 
154-7.8211e-03 
155-2.6398e-03 
1565.9898e-03  
1572.6421e-04  
1585.4520e-03  
159-1.7783e-03 
1608.5170e-03  
161-1.3070e-03 
1623.4759e-03  
1632.9421e-03  
1641.7557e-03  
1658.9375e-04  
166-2.2159e-03 
167-5.1561e-04 
1683.2458e-03  
1693.3393e-03  
170-1.3152e-04 
1711.0455e-02  
172-7.9295e-04 
173-4.8186e-04 
174-1.7668e-03 
175-2.7566e-03 
1761.6584e-03  
177-2.4175e-03 
178-7.0323e-03 
179-8.1133e-03 
180-1.6873e-03 
1815.4783e-03  
182-2.6965e-03 
1833.2709e-03  
184-3.3111e-03 
185-5.9487e-04 
186-3.4798e-03 
187-6.5805e-03 
188-3.6703e-03 
1896.1467e-03  
1903.7529e-03  
191-8.8768e-03 
1928.4553e-04  
193-8.2021e-03 
194-1.2781e-03 
195-3.4011e-03 
196-1.9465e-03 
197-7.3569e-03 
1985.7586e-03  
1994.9635e-03  
2007.3979e-04  
201-4.5066e-03 
2023.5212e-03  
2031.7402e-03  
2041.4202e-02  
205-5.1721e-04 
2061.8483e-03  
207-1.0924e-02 
2084.5748e-03  
2092.8941e-03  
2103.3562e-03  
2116.7745e-03  
2122.5363e-03  
213-2.0321e-03 
214-7.9740e-04 
2153.0165e-03  
2163.9449e-03  
2172.1118e-03  
2186.6077e-04  
219-4.2350e-03 
220-7.0302e-04 
221-6.8658e-03 
222-5.9144e-03 
2234.6686e-03  
224-4.3791e-03 
225-6.9177e-04 
226-8.9896e-03 
227-2.7229e-04 
228-2.7075e-04 
2291.9096e-03  
230-3.2137e-03 
231-1.0492e-04 
232-8.6666e-03 
2332.9748e-03  
234-1.1978e-03 
2351.1368e-02  
236-3.9828e-03 
2371.5157e-03  
2383.2066e-03  
2393.8763e-03  
240-2.2540e-03 
241-9.3681e-03 
242-1.1864e-02 
243-4.4798e-03 
244-8.0849e-03 
245-1.0254e-02 
2461.0167e-02  
247-2.0754e-03 
248-2.2668e-03 
2495.6785e-03  
2509.6200e-03  
251-7.3074e-03 
2528.7186e-03  
253-6.4943e-03 
2548.1280e-03  
255-2.8523e-03 
2568.8536e-03  
257-4.3018e-03 
258-4.3251e-03 
259-2.0770e-03 
260-5.2626e-04 
261-1.3545e-02 
2622.6646e-04  
263-5.6823e-03 
2641.1431e-02  
265-1.0595e-03 
266-1.1779e-02 
2674.4026e-03  
268-2.4707e-03 
269-3.3212e-03 
2706.7272e-04  
271-5.8836e-03 
272-9.3849e-04 
273-7.0309e-04 
2741.7500e-03  
2751.5922e-03  
276-7.9692e-04 
277-2.1929e-04 
278-9.6613e-04 
2792.1555e-03  
280-3.9246e-03 
2813.8760e-03  
2821.2015e-03  
283-9.7340e-04 
284-2.7146e-04 
2852.7497e-04  
2863.7644e-05  
287-2.4314e-03 
2881.1060e-04  
289-4.9349e-04 
290-1.5092e-03 
291-5.7201e-03 
292-4.7223e-03 
293-2.1123e-03 
294-1.3823e-03 
295-2.8180e-03 
2963.4391e-04  
2974.4571e-05  
2981.4787e-04  
2997.8816e-04  
300-3.7715e-03 
301-2.1947e-03 
3021.9589e-03  
303-1.1985e-03 
304-1.6399e-03 
3054.6402e-04  
3061.4798e-03  
307-8.1103e-04 
3088.1619e-04  
309-2.2677e-03 
3101.4052e-03  
311-4.3769e-05 
3121.3440e-03  
313-1.4444e-03 
3145.2634e-04  
3151.8630e-04  
3161.1586e-03  
317-2.9279e-03 
318-2.8604e-03 
3197.7659e-04  
3201.9981e-03  
3214.1559e-04  
322-7.4952e-04 
323-9.2212e-04 
3245.8876e-04  
3257.2441e-04  
3262.4521e-03  
3278.3445e-04  
3284.0200e-04  
329-1.1991e-03 
330-1.0589e-03 
331-9.1529e-04 
3324.4417e-05  
333-1.7719e-03 
334-7.5712e-04 
335-2.7763e-03 
336-3.9345e-03 
3379.9451e-04  
338-2.3217e-05 
3391.5450e-04  
3401.5965e-03  
3414.6457e-04  
3424.2426e-04  
343-1.6941e-03 
344-3.3445e-04 
3454.6502e-04  
3461.0694e-04  
347-3.9412e-03 
348-1.5415e-04 
3491.1747e-04  
350-7.3321e-04 
351-1.3841e-03 
352-8.5616e-04 
353-3.3243e-03 
3541.7589e-04  
3551.1030e-03  
356-7.3452e-04 
3574.7733e-04  
3581.6163e-04  
3596.0747e-04  
360-3.1029e-03 
361-1.6533e-04 
3622.3002e-03  
3635.6651e-04  
3642.5661e-03  
3652.6913e-05  
366-1.5980e-03 
367-1.6997e-03 
368-1.2862e-03 
3698.1523e-04  
370-1.2096e-03 
3711.1150e-03  
372-3.7339e-03 
373-1.1844e-03 
3742.9444e-03  
375-1.0944e-03 
376-5.1731e-04 
377-4.2910e-03 
378-2.0826e-03 
379-5.3196e-03 
380-3.2929e-03 
381-9.0181e-03 
382-8.2001e-03 
3837.4836e-05  
384-5.8347e-03 
3859.2252e-03  
386-3.6744e-03 
3877.2823e-05  
388-1.7946e-03 
389-1.9622e-03 
390-1.6294e-03 
3913.4328e-03  
392-3.2659e-03 
393-3.3585e-03 
3947.7721e-04  
395-5.7001e-04 
396-3.0021e-03 
397-2.6216e-03 
398-4.6367e-04 
3995.8699e-04  
4008.2296e-04  
401-1.8733e-03 
4028.8619e-04  
4033.7984e-03  
4044.7628e-04  
4058.1667e-06  
4061.9969e-03  
407-5.8941e-04 
4082.3074e-04  
409-2.3757e-04 
410-2.5599e-04 
411-1.8958e-03 
412-1.3841e-03 
413-2.5245e-03 
414-9.0653e-04 
415-1.5543e-03 
4161.2853e-04  
4171.4621e-03  
4187.0351e-04  
419-3.0277e-03 
4202.2324e-04  
421-9.3332e-04 
422-2.9639e-04 
4232.9392e-05  
4248.0744e-04  
425-1.1949e-03 
426-1.3024e-04 
427-3.0130e-04 
428-6.9985e-04 
429-8.7149e-04 
430-4.1714e-04 
431-1.0462e-04 
432-2.9788e-04 
433-1.1913e-03 
4342.4783e-05  
4353.1582e-04  
4366.1312e-04  
437-6.7325e-05 
438-3.7053e-05 
439-2.6747e-05 
440-4.4143e-04 
441-7.5369e-05 
442-3.1365e-04 
443-1.1996e-04 
444-1.7078e-05 
445-6.9727e-04 
446-2.5222e-04 
4478.5922e-04  
448-6.4805e-04 
449-3.4530e-04 
4506.7193e-04  
451-2.4809e-04 
452-5.9024e-04 
4531.3917e-04  
454-2.8341e-03 
4551.0345e-03  
4561.0594e-03  
4576.1570e-04  
458-4.1986e-04 
4591.2940e-03  
4608.8421e-04  
4619.0822e-05  
4622.3933e-04  
463-6.9747e-04 
464-1.7472e-03 
465-3.4008e-04 
466-1.1360e-03 
467-1.7743e-03 
468-1.5894e-04 
469-8.5595e-04 
470-4.5940e-04 
471-7.8750e-04 
4726.5678e-04  
4738.5678e-04  
4741.9644e-03  
4751.0648e-03  
476-2.6833e-05 
4778.4928e-04  
478-4.4991e-05 
479-1.2380e-03 
4807.5617e-04  
4811.2376e-03  
4821.6161e-03  
4838.8915e-04  
484-3.2100e-05 
4855.5135e-04  
4868.0925e-04  
487-1.3471e-04 
488-1.1526e-04 
489-4.2196e-04 
4906.1754e-04  
491-4.8167e-04 
492-1.9195e-04 
493-5.9500e-04 
4941.9348e-04  
495-1.2539e-04 
4961.3668e-03  
4977.7167e-04  
498-8.3336e-04 
499-2.1816e-04 
5009.4318e-06  
501-6.6656e-04 
502-4.4253e-04 
5031.0034e-04  
504-5.6676e-04 
505-8.3825e-04 
506-6.3647e-05 
507-7.1899e-04 
5085.3203e-04  
5091.3880e-04  
5102.8866e-04  
511-2.2375e-04 
5121.3067e-05  
513-4.1129e-04 
5147.4826e-04  
515-9.1834e-05 
516-1.0025e-04 
5172.3745e-04  
518-4.5343e-04 
519-4.0774e-04 
5201.3991e-05  
521-1.8892e-04 
5225.2572e-05  
5236.7656e-04  
524-5.6780e-05 
525-1.5774e-04 
526-2.9881e-04 
527-2.8840e-04 
5282.7919e-04  
529-5.1957e-05 
530-2.1068e-04 
5312.9551e-04  
532-2.4342e-04 
533-1.7016e-04 
5344.5805e-04  
535-2.3081e-05 
536-2.2650e-04 
5372.4614e-04  
538-2.0314e-04 
539-1.2572e-04 
5402.0298e-05  
5416.4858e-05  
5421.3713e-04  
543-2.6984e-04 
544-5.2268e-05 
5451.3901e-04  
546-3.0343e-04 
5473.7354e-04  
5483.7296e-05  
549-8.1398e-05 
5501.8547e-04  
551-9.7315e-05 
5525.7111e-05  
5531.7613e-06  
5542.4791e-05  
555-6.4205e-05 
5569.5298e-05  
5571.1138e-04  
558-5.4649e-05 
559-1.8039e-07 
5602.6493e-05  
5611.5944e-04  
5621.3673e-04  
563-1.8580e-04 
5641.3657e-04  
5652.2567e-05  
566-2.1890e-04 
567-1.0424e-04 
568-8.7438e-05 
569-5.6971e-05 
5701.3872e-04  
5716.3535e-05  
572-1.1618e-04 
573-5.6871e-05 
5741.1721e-04  
5755.3192e-06  
5761.2210e-04  
577-9.1164e-05 
578-2.7038e-05 
5791.3220e-04  
5805.2517e-05  
581-8.2658e-05 
5822.5996e-04  
583-1.0441e-05 
5844.9600e-05  
585-1.1257e-05 
586-3.1175e-05 
587-4.7497e-05 
588-6.0778e-05 
589-6.0414e-05 
590-4.5929e-05 
5916.6876e-05  
5929.7759e-05  

Decomposition over AOs for the left beta Dyson orbital:
2.34473116e-04
-2.31323673e-03
4.54202413e-02
-4.56350572e-02
1.70246167e-02
1.89089796e-01
-1.05764675e-01
4.14745406e-02
-1.73141832e-02
1.14841478e-01
8.29143787e-03
3.79825396e-02
-2.34405825e-01
1.48634695e-02
2.69617301e-02
-1.38306314e-02
-3.98217706e-02
4.00596025e-02
-1.83555814e-01
2.32796667e-01
1.88330390e-01
3.20258020e-02
-1.64507333e-01
-4.43328850e-02
-2.61108308e-02
1.69440498e-01
-2.47782586e-01
-7.75133877e-02
-4.55228742e-03
-8.36869629e-03
1.11483263e-04
2.16791820e-02
-6.20685973e-03
-9.68409191e-03
1.65307434e-03
-3.93851185e-04
1.36844416e-02
1.23844048e-02
2.89483853e-04
1.17231590e-02
2.71619338e-02
-8.38706261e-02
-9.69111099e-02
1.83309954e-01
-1.28087023e-01
1.17768551e-01
8.48562607e-02
4.69194696e-02
7.91702497e-02
6.79521924e-02
-3.56070089e-01
2.68370754e-03
7.34792182e-02
-5.61616608e-02
-1.04522500e-01
2.84169108e-02
-9.11517155e-02
3.00291800e-02
4.31787600e-02
2.77049325e-01
2.41049373e-01
1.49934622e-02
-2.31464824e-01
-1.06311944e-01
6.61151625e-02
-1.12515066e-01
7.49276110e-03
-1.46032282e-02
-1.64939480e-02
-3.09543836e-02
1.82791285e-03
7.75218647e-03
-1.13264712e-02
-1.90853054e-02
-2.88889786e-02
-1.40003025e-02
3.42967783e-04
-2.56854564e-03
-5.27586643e-03
2.96692092e-02
-1.01106586e-01
8.90330581e-02
-8.86405450e-02
1.35676120e-02
1.40204534e-02
1.39865928e-01
2.23481227e-02
5.00133722e-02
-2.68806739e-01
4.55288313e-02
5.99854174e-02
-3.00810560e-02
-9.59525881e-02
2.56097666e-02
-1.66478232e-01
-1.14219826e-01
8.62374889e-03
3.75096427e-03
-2.38748872e-02
-3.33455904e-01
-3.26555320e-02
7.54120657e-02
1.51656429e-01
1.40975827e-02
-6.22371046e-03
1.95538721e-02
8.11952381e-03
1.05521628e-02
2.88972585e-03
-6.53666915e-04
-1.29820274e-02
-1.45731776e-03
1.14945591e-02
2.38345607e-02
1.59138787e-04
-3.81255227e-03
-2.88351038e-02
-1.09625975e-01
-5.19603036e-02
-2.83058106e-04
-1.58093348e-02
-6.49023732e-02
-2.41885651e-02
7.67751909e-02
-2.50681346e-02
-4.73892442e-02
2.82426475e-01
4.58399581e-02
7.47310270e-03
4.26629918e-02
-9.35943447e-02
1.65386888e-02
1.42401364e-01
-6.93377016e-02
3.32439511e-02
7.09726978e-02
5.06788192e-02
1.14885618e-01
-1.41721233e-01
5.55562317e-02
-1.26790326e-01
-4.62981674e-02
-3.86860173e-03
-1.14854264e-03
3.06476265e-03
1.98265651e-02
-3.25754306e-03
-1.51400930e-02
6.05627560e-03
-7.49411562e-05
-9.77470055e-03
8.60625004e-03
1.79893079e-04
4.28184486e-03
-9.95097040e-03
1.16840149e-02
8.35134468e-02
-7.07508544e-02
6.18357510e-02
-1.03423860e-01
-4.90025446e-02
-1.57100962e-01
-4.35528436e-02
-6.65118479e-02
2.86422681e-01
9.70016868e-03
-4.34846768e-02
4.26031563e-02
-1.52193206e-01
6.05339511e-02
5.80058426e-02
2.38418507e-01
1.26482641e-01
-3.12416357e-01
-1.03352875e-02
-3.88596151e-02
4.57857640e-01
-9.34357423e-02
3.44455959e-02
2.66285194e-02
7.38236054e-03
-1.23695434e-02
-1.22643150e-02
-3.10013187e-02
1.06579023e-03
2.12951610e-02
-2.68769602e-03
-9.10719953e-03
-3.44371430e-02
-1.95223114e-03
1.28316163e-04
-1.31708317e-02
-5.55461671e-02
2.50844343e-02
3.42706740e-02
3.54290031e-02
-2.45421554e-02
-7.97910550e-02
-4.37048815e-02
-1.29693740e-02
-1.76131112e-02
-2.91957309e-02
2.42473305e-01
3.05100714e-02
-1.83613347e-02
2.65429009e-02
-1.19951756e-01
9.09712786e-02
1.87798173e-01
-2.99015985e-01
-1.16363844e-01
1.09602018e-01
-2.51957850e-01
-1.40888220e-01
1.46769170e-02
-8.72078301e-02
5.34396869e-02
1.44290816e-01
-4.90696405e-03
1.64941801e-02
5.78520473e-03
6.86894306e-03
1.11174602e-03
-1.82049931e-02
-2.89406513e-04
5.37124792e-03
1.46076056e-02
1.01404269e-02
-3.14125977e-04
-8.52544736e-04
6.08742715e-03
8.97358565e-03
-1.13372607e-02
-5.85182761e-02
-1.86626341e-02
7.64363089e-02
1.81203857e-01
-9.89101925e-02
-8.74956092e-02
-8.26983181e-02
4.09506441e-01
-7.37913585e-03
-8.75511163e-03
4.63669654e-02
-2.30806347e-02
-4.73617881e-02
2.04348813e-01
1.50368924e-02
1.56460056e-02
-9.23864088e-02
9.33670528e-03
-6.27781281e-02
1.75813341e-02
-1.08453554e-01
1.81907319e-01
1.99527905e-01
3.21357214e-04
-4.82901897e-04
-7.86422099e-04
-1.01429437e-03
-1.88886313e-05
9.43211215e-05
-7.12026796e-04
3.79294691e-05
5.79741635e-04
3.19397975e-04
-1.74449428e-05
7.03385976e-03
2.55876016e-04
-1.24890339e-01
-7.78615716e-02
1.99390468e-02
-1.47153542e-02
-9.57487103e-02
4.69372506e-02
-1.30480352e-01
4.07144466e-03
-1.06566693e-02
2.37020899e-02
-2.88918844e-03
4.83763971e-04
-4.34637062e-03
-3.18405731e-02
3.23748588e-02
2.07017763e-02
-6.10175546e-04
-2.60761765e-02
-8.25526484e-02
4.10024712e-02
5.22434501e-02
1.66865905e-01
1.84287731e-03
-1.49691141e-02
8.22396337e-03
1.92425698e-03
4.04952375e-03
-1.04981451e-03
-1.19688116e-02
1.76602431e-03
1.32672929e-03
1.41181969e-03
2.23170624e-03
6.34263897e-03
1.27293112e-03
-1.45096613e-04
-2.46515279e-03
3.70364436e-04
-4.44083073e-04
1.10939567e-01
-4.95837353e-02
7.29984066e-02
-8.97203986e-03
1.08582449e-01
1.18347448e-02
6.25462800e-02
8.23287789e-02
-3.81523993e-01
4.17291045e-03
6.74410258e-03
-3.72459414e-02
3.02778494e-02
2.80065467e-02
-1.50093939e-01
-2.77600604e-02
-3.53314591e-02
5.08252944e-02
1.33594061e-02
-1.85648149e-02
7.88343625e-04
1.88157093e-02
-1.83003763e-02
-1.20623733e-01
-2.16040852e-05
1.74357372e-04
9.99655140e-06
-3.10311724e-04
-5.84934214e-05
4.28737108e-05
5.98259523e-04
-2.81764356e-04
1.84488296e-03
2.40622282e-04
1.63697803e-04
3.43198308e-02
1.06343918e-02
7.84166414e-02
1.51129642e-01
-1.68819311e-01
5.12969780e-03
-2.23645969e-02
6.19987976e-02
7.23117073e-02
9.90570805e-03
-1.65771823e-02
-7.39542419e-02
5.98078380e-03
-8.09316187e-03
-6.83257546e-03
-1.89996862e-02
-2.23886750e-03
-3.38347374e-02
-2.32790082e-03
7.50362779e-02
-5.97037765e-02
1.44580067e-01
-2.19618723e-02
-2.11635621e-02
-1.05727511e-01
2.55689708e-01
-2.88542086e-01
1.11118114e-03
3.53313360e-03
-9.98959905e-04
-3.02226011e-03
7.77936804e-04
5.05466800e-04
-7.53243451e-04
-1.19860275e-03
-2.54505039e-03
-1.36264165e-03
-1.15910649e-03
-5.22175402e-02
-1.19767945e-02
5.92866743e-02
-6.25648641e-02
-8.30069296e-02
1.80857959e-02
-6.54617825e-02
-4.81459631e-03
7.64353742e-03
2.46799825e-02
-3.53051344e-02
5.36246176e-02
1.12211975e-02
-6.95168387e-03
2.10440062e-02
1.76099026e-02
9.64132403e-03
9.67836215e-03
7.39493760e-03
-6.04019143e-02
-4.78960394e-02
1.87217241e-01
-1.16171071e-01
-2.85517006e-02
-3.35335391e-03
9.03694167e-02
2.87132123e-02
-1.03335829e-03
3.39970411e-03
-4.31299923e-04
-1.56426023e-03
1.22243284e-03
6.61549182e-03
6.62993894e-04
3.27088295e-03
-2.36180014e-03
2.98022562e-03
-9.39793950e-06
-4.13849300e-03
3.94785014e-03
-4.64964766e-03
1.29385161e-01
-1.67493045e-01
9.20709819e-02
1.54611468e-01
-8.75059043e-02
-1.65777831e-01
6.87493058e-03
-7.87544469e-03
1.44884932e-01
1.48312751e-03
-6.72972584e-04
2.39395860e-02
-5.06897065e-03
-6.97212853e-03
8.09051015e-02
8.00989728e-02
5.23588709e-02
2.53099601e-02
7.57987229e-03
3.24372895e-02
-1.94480195e-02
2.02745121e-02
-2.70311653e-01
2.65428285e-01
6.40015807e-04
-2.84812929e-03
-8.64631142e-04
-5.55636287e-04
-6.31585443e-04
4.25476381e-04
-3.80805554e-03
7.28596635e-04
-3.58708400e-03
2.29200664e-05
1.00057593e-04
1.43050510e-02
1.10871164e-03
-4.14493977e-02
-1.08407132e-01
1.23865050e-01
6.18390487e-02
-1.56454823e-02
1.73875149e-01
-6.82933757e-02
1.09651733e-02
1.27572278e-02
-1.41872162e-02
2.07416846e-03
3.80785946e-03
-1.14282308e-02
1.23718114e-03
1.28477348e-02
-4.72422892e-02
3.41044433e-02
4.60764798e-02
-6.03662428e-02
-1.30977732e-01
1.60221651e-01
-1.69284716e-02
-1.84478381e-02
3.20343010e-02
-4.33488038e-02
4.57722925e-04
1.54232043e-03
-2.93320379e-03
6.18617320e-03
1.97755529e-03
-1.19984068e-03
-2.66160110e-04
-1.91890872e-03
3.46731593e-03
2.50882810e-03
6.36270261e-02
2.93799439e-02
1.02333158e-01
-7.28774987e-02
-3.28547534e-01
2.65081483e-01
-3.81313620e-04
1.93561116e-04
-7.48490363e-05
-1.71314057e-03
7.73799725e-03
-5.07303133e-03
-2.12614144e-03
8.92608340e-03
-3.69525932e-02
5.67762420e-02
9.94761459e-02
-8.66978396e-03
1.42787001e-04
-2.41954168e-04
1.20487770e-03
-1.05068227e-03
-2.94069376e-03
7.15511032e-04
-6.61621887e-02
-4.94952493e-02
-1.63517096e-01
1.03604737e-01
2.58731740e-01
-2.05112546e-01
5.56566204e-04
-3.60652328e-04
2.91371788e-04
-1.11978678e-03
-1.21277997e-03
-9.64634967e-03
2.71673939e-02
-1.90133664e-02
4.15581798e-02
-1.71478849e-01
2.40539789e-01
-3.78106295e-01
1.52711902e-04
-2.66128467e-04
4.31679607e-04
-4.93220787e-03
-8.41665599e-03
-3.65884318e-03
-6.67366574e-03
-6.70368655e-04
7.74898522e-02
1.19572818e-01
-1.98969875e-01
-3.88651816e-02
2.29094379e-04
6.28921847e-05
-1.72662194e-04
-1.45559151e-03
-9.67116801e-04
3.95855586e-04
-3.28379382e-02
1.18428214e-02
3.02060351e-01
1.33229740e-02
-6.47106290e-02
4.75642591e-01
-7.50494977e-04
4.73536282e-04
-1.15308305e-03
3.34407176e-03
-1.60588579e-03
-9.98824158e-03
1.22094930e-02
-2.29324402e-02
2.38818260e-02
3.76878825e-01
-1.73704173e-02
-1.92361586e-01
-1.41931814e-04
-1.47640424e-04
1.31165748e-03
-4.34792316e-03
6.52423668e-03
7.57629121e-03
-6.08919490e-03
-1.14830138e-02
4.26618339e-02
-9.48453197e-02
-1.83610307e-02
-2.91059888e-02
-3.45919625e-05
-9.37312306e-04
6.61858336e-04
-4.67597878e-03
-1.15661068e-03
-2.42570072e-03
1.21674302e-02
7.99468086e-03
1.43017679e-02
-2.16466800e-01
1.09814179e-01
2.13582500e-01
9.31549420e-04
-1.00131535e-03
7.16870955e-04
-3.89344051e-03
-2.80656795e-03
-7.52090031e-04
7.20982425e-03
7.79529629e-03
-1.50214399e-02
1.65136247e-02
-4.44894339e-02
6.17486880e-02
-5.79966720e-04
-1.18443886e-03
7.28700465e-03
1.00342827e-03
-2.14643173e-03
4.66901390e-03
-5.01230270e-04
-1.78858160e-02
-6.07292597e-03
-5.35273676e-03
-1.65805554e-01
-3.15127752e-01
1.33757435e-03
-2.53619871e-02
-2.01556311e-01
2.39813358e-02
1.28012974e-02
-8.32321197e-03
1.66285165e-02
-3.20735502e-03
-2.41359049e-03
-4.70270360e-03
-2.59467133e-02
-2.67766972e-02
2.40741018e-02
5.06862159e-02
5.44971497e-02
-3.28405840e-02
-1.40399729e-01
-5.52182143e-02
-1.06472674e-01
-4.05462172e-02
2.61197073e-02
7.11088044e-02
-5.38899948e-04
-9.62411406e-04
2.30978743e-03
-7.32925801e-04
-7.64204908e-04
9.32018617e-04
-1.41954633e-03
1.68756155e-03
-1.18193147e-03
-1.54964243e-04
3.22839485e-02
5.33646231e-03
2.04708304e-01
2.15423372e-01
-2.34124376e-01
1.16570447e-01
7.46103727e-04
2.69198932e-06
9.92564989e-05
2.35939822e-03
4.63834917e-04
1.35192660e-03
-2.04221503e-02
-9.10094042e-03
1.43110649e-01
-4.79545267e-01
8.06348712e-02
-1.07598184e-01
-5.27522540e-04
-3.49711299e-04
-1.98441791e-03
-1.05770379e-03
2.25510738e-04
-5.16269684e-03
   *****

 Right Dyson orbital norm is 0.9587

Right beta Dyson orbital in the MO basis (canonical Q-Chem's ordering):
0  -9.9537e-16 
1  3.7942e-16  
2  -4.7230e-17 
3  5.9173e-16  
4  1.6638e-15  
5  1.0513e-15  
6  -4.5028e-16 
7  1.4141e-15  
8  -7.8882e-16 
9  1.7159e-15  
10 3.9960e-16  
11 -7.6206e-16 
12 2.6523e-16  
13 1.8203e-16  
14 2.5563e-04  
15 -7.2054e-04 
16 1.0057e-03  
17 1.1987e-03  
18 -3.3807e-04 
19 8.7595e-04  
20 4.5681e-04  
21 1.3423e-05  
22 1.6708e-03  
23 -7.8807e-05 
24 -1.7306e-03 
25 -2.7300e-03 
26 2.2792e-04  
27 -2.8594e-03 
28 2.5557e-03  
29 8.8353e-04  
30 4.2914e-03  
31 -2.2157e-02 
32 3.3360e-03  
33 -2.0611e-03 
34 -2.4099e-02 
35 2.1493e-02  
36 7.1703e-03  
37 -1.7265e-04 
38 -1.9550e-02 
39 1.6722e-03  
40 4.5595e-03  
41 4.6082e-03  
42 9.1234e-03  
43 2.4665e-02  
44 8.0261e-02  
45 -1.0706e-02 
46 1.3193e-02  
47 1.3680e-02  
48 1.2758e-02  
49 1.1025e-02  
50 -1.2753e-02 
51 1.0272e-02  
52 1.2746e-02  
53 8.3386e-03  
54 2.3175e-04  
55 -9.4524e-03 
56 4.2194e-03  
57 -1.8339e-04 
58 -5.8083e-04 
59 7.9046e-04  
60 -5.5898e-03 
61 6.7781e-03  
62 -1.2727e-03 
63 1.8932e-02  
64 7.7266e-03  
65 4.6020e-03  
66 -3.7209e-03 
67 1.7110e-02  
68 8.6071e-03  
69 9.5238e-03  
70 2.3611e-02  
71 -2.1859e-02 
72 1.0088e-02  
73 -9.8242e-03 
74 -4.9228e-02 
75 -2.5891e-02 
76 2.0707e-02  
77 -1.1170e-02 
78 4.9092e-03  
79 -2.8621e-02 
80 9.7044e-03  
81 6.1718e-04  
82 -1.4208e-01 
83 1.2535e-01  
84 -6.9409e-02 
85 -3.7890e-01 
86 8.5114e-01  
87 -4.2167e-02 
88 -1.0666e-01 
89 1.1824e-01  
90 6.5755e-02  
91 2.7521e-02  
92 -1.3599e-01 
93 -2.3955e-02 
94 -3.3344e-02 
95 -5.7095e-02 
96 5.3018e-02  
97 -2.2477e-03 
98 3.0467e-02  
99 1.7533e-02  
1002.3878e-02  
101-5.0225e-04 
102-4.1862e-03 
103-1.0707e-02 
104-3.7706e-03 
105-4.6072e-02 
1068.5488e-03  
1073.3365e-02  
1083.0326e-02  
109-1.8296e-02 
110-2.2235e-03 
111-1.4189e-02 
112-2.5374e-02 
1139.6503e-03  
1144.8734e-03  
115-1.1650e-02 
116-1.8053e-02 
1172.4480e-02  
1181.6478e-02  
1191.4361e-02  
120-8.0241e-04 
1211.0433e-02  
122-1.2732e-03 
1233.4514e-03  
124-1.6751e-02 
125-9.8563e-03 
1265.4221e-04  
1274.7284e-04  
128-5.5930e-03 
1298.8356e-03  
130-5.4124e-03 
131-1.1684e-02 
1323.5729e-03  
1332.1404e-02  
1343.8807e-04  
1352.2663e-04  
136-8.7642e-04 
137-8.4223e-03 
1382.7760e-03  
1398.4487e-03  
1407.9052e-03  
141-1.0228e-02 
142-7.1902e-03 
1431.1553e-02  
144-3.3061e-04 
145-3.4251e-03 
146-4.9088e-03 
147-5.0226e-03 
148-1.5864e-03 
149-3.4697e-03 
150-2.7915e-03 
1512.8468e-03  
152-7.5323e-03 
153-1.0998e-02 
154-7.8211e-03 
[...]
5441.2827e-06  
545-1.2114e-04 
546-7.1314e-07 
547-9.0678e-05 
548-2.4673e-05 
549-3.5386e-05 
5502.5143e-05  
551-8.0129e-06 
5526.2515e-05  
5536.3460e-05  
5541.0930e-06  
555-4.7899e-06 
556-8.1886e-05 
5572.6307e-04  
5581.7710e-05  
559-5.3162e-05 
560-2.0475e-05 
5613.0299e-05  
5627.0976e-05  
563-6.6942e-05 
564-2.5298e-05 
565-3.7975e-06 
5663.3642e-05  
567-1.5915e-05 
5681.5991e-05  
5691.1117e-05  
5703.1565e-05  
571-6.3437e-06 
572-1.3464e-05 
573-1.0021e-06 
574-2.2583e-05 
5751.3476e-05  
576-5.7266e-06 
5772.1884e-05  
578-3.3229e-06 
579-5.9227e-06 
5802.0817e-05  
581-3.4277e-05 
582-2.4721e-05 
5839.1535e-06  
584-4.2975e-05 
585-5.0482e-05 
5862.3498e-06  
587-1.2340e-05 
5882.8506e-05  
5894.0346e-06  
5901.4823e-05  
591-2.7064e-05 
5925.5208e-06  

Decomposition over AOs for the right beta Dyson orbital:
-4.17703778e-04
-6.59503149e-03
-8.01216381e-03
-2.15318455e-02
-6.27365153e-03
1.34317700e-01
1.14870041e-02
-2.55610399e-01
3.11208768e-01
-9.60770263e-01
2.58100650e-03
-4.82860046e-03
-3.65950646e-04
1.46041411e-02
-9.42065306e-04
2.72996912e-03
6.13776842e-02
2.53661364e-02
3.06356096e-02
-5.08558071e-02
-2.39864351e-02
1.84856685e-02
-1.01888406e-03
-1.10209008e-01
-2.27311578e-01
1.35169091e-01
-2.29800136e-02
-2.65904113e-01
1.47783978e-03
-1.27164335e-03
1.40532737e-03
-2.59669441e-05
1.12075349e-03
6.75527941e-03
-4.15104340e-04
1.92469349e-03
-6.38011090e-05
-1.41809850e-03
-5.69874954e-04
-6.23621141e-03
-6.34382135e-03
1.20268647e-01
9.18907692e-03
1.62638636e-02
3.11509401e-02
-1.43212539e-01
5.51876154e-01
3.33166582e-01
-1.18644337e-02
-3.65886247e-03
-1.20409184e-02
1.11051831e-02
-2.11534203e-02
-1.21963626e-03
6.19460032e-03
-9.75243114e-03
-1.08407428e-02
1.25548497e-01
1.41887904e-01
7.03839550e-02
3.26623639e-01
-1.56339076e-01
9.30160283e-02
5.28003214e-02
3.76270849e-02
2.98461932e-02
-6.60607690e-04
-9.07818479e-04
1.73390461e-03
-8.78624960e-04
-9.00541532e-04
-4.27509530e-03
-2.02221481e-03
3.26837879e-03
-2.07788426e-03
4.39138571e-03
-3.09634525e-04
-1.75006639e-03
9.10649570e-03
-1.74770303e-03
-2.63660512e-02
1.55431852e-02
4.59932545e-02
7.31293640e-02
1.15413407e-01
4.59466017e-02
-5.30031171e-03
7.01253260e-03
-5.62118000e-03
2.91698182e-03
-1.42322846e-02
-3.51376161e-03
-1.02038611e-01
6.06077867e-02
6.93272077e-03
4.81415837e-02
-1.80197508e-01
7.89172907e-03
4.16486206e-02
1.42078911e-01
6.28858503e-02
-1.14278922e-03
-5.26888226e-03
2.53738422e-02
5.28066030e-04
-1.68880355e-04
1.88063034e-03
1.60264348e-04
-3.16795039e-04
8.30712496e-03
3.37630188e-03
3.57405095e-03
1.27203533e-04
-8.76271989e-03
-3.88417597e-04
-1.13433449e-02
-4.22612367e-03
-8.94676053e-03
-3.59915284e-02
1.63341354e-03
5.63747977e-02
6.76908571e-02
-3.99514385e-01
-1.84829753e-01
4.90178372e-04
-6.31431849e-03
2.14230999e-03
-2.18258491e-04
-4.83955917e-03
7.96362710e-04
-1.96795749e-02
-1.37396687e-02
-2.32064066e-03
-2.17229524e-02
9.74412369e-02
3.64918338e-03
-1.00344148e-02
-1.81490981e-02
2.94525100e-04
-1.08480456e-02
-7.62113668e-02
-1.07709708e-01
-4.29513899e-04
-3.50017414e-05
9.76622123e-04
-1.94380339e-04
7.45503842e-04
1.99352460e-03
1.00138431e-04
1.35810966e-03
1.45187381e-04
-3.85494843e-03
-1.71158106e-04
-5.06548744e-04
-6.91990375e-03
-1.82340188e-02
-3.43298537e-02
3.85734597e-02
2.14259408e-02
-7.47894013e-02
1.82331881e-01
6.00420899e-01
2.64292532e-04
6.56287297e-03
-8.94129874e-03
-2.42828429e-03
9.47611573e-03
3.77825588e-04
-6.74214706e-02
3.61937217e-03
-9.85034511e-03
2.43360095e-02
5.51117918e-02
1.75545117e-02
1.51666782e-01
1.04201479e-01
1.43455236e-01
1.28034802e-01
8.88135221e-02
1.46223901e-01
-3.48696711e-04
1.93745817e-04
1.41348808e-03
-1.04993746e-04
2.87117439e-04
-4.81633861e-04
-6.43667280e-04
2.52013622e-03
9.57247123e-04
1.84859630e-03
-2.89784734e-04
-1.61747880e-03
-3.69566505e-03
-1.23245341e-01
-6.45354422e-03
4.42002362e-02
4.05647618e-03
-2.45881783e-01
7.22096421e-01
-5.22978263e-01
1.10493926e-03
-5.46680204e-03
-1.20535689e-02
6.67782535e-03
9.40031502e-03
1.10249542e-03
5.10145122e-03
3.75325594e-02
-1.01435979e-02
7.09388657e-03
-2.31664085e-02
-5.02840021e-02
-2.26195444e-01
5.70062705e-03
-1.56560913e-01
-1.59341130e-01
-7.98589281e-02
-3.18060520e-02
3.37046892e-04
-9.07399334e-04
9.10205271e-04
2.12265766e-04
-7.20533919e-04
2.09520065e-03
1.32005351e-04
1.47241902e-03
-7.20691046e-04
-5.50958648e-03
-6.68275008e-04
-2.17148829e-02
-6.21092803e-03
-3.20686617e-02
-2.91444525e-02
-1.70132473e-02
-1.21778956e-01
-1.85453836e-02
-9.61867017e-02
-8.20257015e-01
8.77896289e-03
1.07721651e-03
-1.18225446e-03
-3.60076566e-04
-5.89660145e-04
-5.01398419e-04
2.98766055e-03
4.84388290e-04
-1.80782927e-03
-3.00102614e-03
-2.97238404e-02
-1.03066094e-02
-3.80736968e-02
1.10613628e-02
-6.25748596e-02
-9.38979151e-02
1.39626514e-01
-1.51758398e-01
2.23366096e-04
-1.37743545e-04
-1.69725353e-05
-2.05945904e-04
2.18359354e-04
3.82371176e-04
-2.77122530e-04
7.28726274e-05
-5.28378232e-04
5.12581166e-04
-5.30069445e-04
-3.26955452e-02
8.82357175e-05
-1.82109879e-01
-1.48767385e-01
6.87596608e-02
8.37894598e-02
1.36063297e-01
-2.65547611e-01
1.41929562e-01
1.38853285e-02
2.03169536e-03
-7.92719696e-03
8.33096537e-03
-4.54393192e-03
-1.20043060e-03
-2.07497830e-02
-3.56959943e-04
-9.25327757e-03
5.19805195e-02
-4.49712324e-02
-3.78891672e-02
2.17362470e-02
-7.44988077e-02
-7.95099983e-02
-3.69258219e-02
8.17235764e-02
1.61427761e-01
-3.88682801e-05
8.09298136e-05
3.02123340e-04
-1.70623475e-04
2.71464175e-04
-1.19761695e-03
-4.63369130e-04
8.45286178e-04
-1.08397513e-03
2.64070318e-03
-1.92648902e-04
-5.01906710e-03
-1.01234908e-03
-3.31447745e-03
9.63227074e-02
-5.11888646e-02
6.84690274e-02
1.85261556e-01
4.25412206e-02
-5.04439422e-01
6.65969689e-04
-3.14896799e-03
2.94291465e-03
-7.10737278e-05
-5.97384327e-04
1.44199458e-04
-7.66575359e-04
-2.74264599e-03
7.47752748e-05
-1.40999736e-02
-1.05925956e-02
-2.81253537e-03
1.43630209e-02
-1.73954972e-02
-3.49547776e-03
-2.79416088e-02
-1.03044551e-01
-6.31955083e-02
-4.53165397e-05
3.24716837e-05
1.59312630e-04
7.73280378e-05
3.60078770e-05
-5.46100707e-05
1.35652247e-04
1.44162447e-04
2.14131610e-04
1.07493737e-05
-5.40156706e-05
-3.08383516e-03
2.05499007e-04
7.97355097e-03
9.23665526e-02
3.02994148e-02
-6.67896900e-02
-6.33349838e-03
7.64842816e-02
1.21507193e+00
7.48451171e-04
-3.38946233e-03
8.73529491e-03
-3.24697878e-04
6.56885508e-04
7.57617168e-04
-3.90239558e-03
1.10761289e-03
7.09059430e-03
-2.29075003e-02
-7.27516415e-03
1.55656253e-02
-7.45817388e-03
1.55518930e-02
-1.79607878e-02
2.17147341e-01
-1.90920604e-01
3.73248062e-02
-6.62414641e-05
-7.56109406e-05
5.23422467e-05
8.22853525e-05
1.32977108e-04
-1.95433587e-04
1.89889722e-04
-1.99938812e-04
6.38264316e-05
1.76290246e-04
-3.27799940e-04
-1.65561562e-02
-5.13108804e-03
-6.01748261e-02
2.12139852e-01
-4.40390801e-02
-8.50456861e-02
-2.86288862e-01
-7.44444405e-01
8.74022474e-02
4.21477391e-03
7.29048221e-03
-1.21932214e-02
-2.12757198e-03
6.06627239e-04
-1.98748784e-05
2.81995216e-03
-3.10680180e-03
7.54572604e-03
-8.53863736e-02
2.08553094e-02
1.41844372e-03
-5.59620463e-02
2.93477550e-02
1.09515270e-01
1.22445635e-02
3.73915894e-02
1.41106123e-01
-3.13657300e-04
-4.36162299e-04
1.26198661e-04
-1.16344569e-04
2.29307683e-05
2.84391317e-04
4.84993537e-04
-6.91890085e-04
1.63231879e-04
-1.73065582e-04
-4.08376504e-05
-2.75670032e-03
-1.08690242e-03
-1.52453059e-03
1.76837965e-01
5.74238927e-02
1.93507993e-02
7.24268489e-02
-1.98814976e-01
-1.67597673e+00
-1.53729394e-02
-8.61999164e-03
1.29693431e-03
-1.29015360e-03
1.60935448e-04
1.38852824e-04
-1.14681600e-02
-1.29328000e-03
1.40963228e-03
-7.68806075e-02
7.59436659e-04
4.52541685e-03
-1.06466660e-01
-1.09922541e-01
-1.97731003e-02
5.77130716e-02
-4.59390920e-02
3.47858223e-01
-3.82335353e-04
1.10900359e-04
3.12937663e-04
1.35332026e-04
4.21080127e-05
-9.04556753e-04
1.49513063e-04
5.17875183e-04
3.43532074e-04
-2.12450801e-04
-8.93984293e-04
-4.30026805e-02
-1.42824356e-02
-1.20117876e-01
2.22779918e-01
2.06809418e-03
4.54444944e-03
1.77785989e-01
5.51404508e-01
7.41553707e-01
1.42016480e-02
6.31070918e-03
-1.36402585e-02
1.76894339e-03
-3.29248195e-03
9.74117184e-04
-1.82031136e-02
-3.80174040e-02
1.75458905e-02
-2.41838702e-02
8.30592997e-03
1.19757965e-01
-9.45138517e-02
-6.34732005e-03
-1.04151061e-01
-3.45578168e-02
5.03520284e-02
-9.83442873e-02
9.24900585e-04
-2.83806321e-04
-1.84331706e-04
1.57955739e-05
4.30102801e-04
-6.01735454e-05
-3.98135657e-04
4.67950477e-04
-6.66428305e-04
6.01293986e-04
-5.63163768e-03
9.62530194e-03
1.04985075e-01
2.90779599e-01
1.97744216e-01
-1.21611068e+00
-9.82125015e-04
-8.36197680e-04
1.39634353e-03
-1.86753013e-03
-2.40095070e-03
2.80013660e-03
-1.12773838e-03
1.36389345e-02
8.29710894e-02
1.69524550e-01
-1.73334669e-01
2.03465940e-01
2.71832084e-04
1.03363139e-03
1.39845067e-04
-1.02846947e-03
2.76284358e-04
2.19181942e-04
-3.37799841e-04
8.66335302e-03
2.84590895e-02
-3.50231840e-03
1.76507433e-02
5.42057962e-01
-2.86713450e-04
-1.21232833e-04
-1.17252230e-03
-9.81249251e-04
-2.22856520e-04
-1.28616237e-03
5.08772060e-04
1.24766625e-02
2.44233091e-02
-8.95617664e-03
-9.56168399e-02
-6.84914669e-01
-7.66280833e-04
4.36340583e-05
-1.19154006e-03
-1.42510526e-03
-3.60023235e-04
-6.28758866e-04
-4.56417988e-03
2.60821776e-03
-8.23427524e-02
-7.38761238e-02
1.11493630e-01
1.46947087e-01
5.48962717e-04
-1.38463292e-03
-1.51989820e-05
5.76072426e-04
-3.61235290e-03
4.88768507e-04
-8.33333468e-03
8.27242801e-03
-2.19473963e-01
-2.49974962e-01
-3.76956918e-02
4.09789042e-01
-9.27531188e-04
3.79908800e-04
1.91437575e-03
-3.00646011e-03
1.88073362e-03
5.08372159e-03
-3.85361587e-03
2.70696444e-03
-3.39709083e-02
1.94541968e-02
-2.93547140e-01
-3.85206190e-01
5.24007997e-05
5.19955525e-04
5.13789383e-04
-6.92818625e-04
4.29986165e-04
1.87289590e-03
-4.83696759e-03
8.02696620e-04
-7.47557784e-02
-1.43328227e-01
-9.31764994e-02
5.71564984e-02
-7.98746443e-04
-6.43895094e-04
2.40230723e-04
-2.22906215e-03
-1.99614707e-03
2.49152540e-03
2.29807970e-03
8.09677877e-03
1.74285351e-02
1.93092680e-01
-1.61767035e-01
5.31265814e-01
4.14385448e-04
-8.02321821e-05
-2.62586725e-04
-4.98977702e-04
1.95079744e-04
1.45964357e-06
-9.17305297e-03
-2.13548911e-03
-7.61715996e-03
-1.87842983e-01
5.05164853e-02
-7.62615365e-02
-9.67569794e-05
4.82454331e-04
3.15412503e-04
-4.74760678e-04
9.49622855e-04
1.18355349e-03
-2.22747785e-03
-6.06390605e-02
-1.39529753e-02
-8.70246100e-02
-6.30470827e-02
-9.00367512e-01
1.68499785e-01
1.21536685e-01
5.33973255e-02
1.12667120e+00
4.09225215e-02
2.58236556e-02
-3.21527751e-02
3.79416643e-03
3.09596711e-03
-1.12643515e-03
2.90433127e-02
2.04486241e-02
-1.69264682e-02
-4.84218935e-03
-3.18446656e-02
-3.02154520e-04
9.49333327e-02
4.03051623e-02
2.71146982e-02
-3.63672662e-02
-1.23799852e-01
1.55374453e-01
-4.89034606e-04
4.50573887e-04
-1.89757158e-04
7.19966590e-04
-2.41040719e-04
4.80600462e-06
2.73014388e-04
1.07738700e-03
1.32793869e-03
2.09477696e-04
1.98684266e-03
3.12356223e-02
2.69309701e-01
1.90614827e-01
-2.60811339e-01
5.94416041e-01
-1.42232162e-04
-8.50184830e-04
5.97601965e-03
-2.25382504e-03
-3.25594208e-03
1.36522745e-02
1.26521786e-02
3.73676405e-02
2.73000139e-01
6.04583511e-01
6.83235950e-02
5.06942992e-01
-3.93592718e-03
-1.83715710e-03
-2.92785431e-03
-9.85992685e-03
-5.38710558e-03
-2.41640006e-03
   *****

     End transition


 All requested transition properties have been computed


 Transition Properties  CPU 29.44 s  wall 3.83 s
 Total ccman2 time:   CPU 49829.94 s  wall 1747.39 s


 --------------------------------------------------------------

                    Orbital Energies (a.u.)
 --------------------------------------------------------------

 Alpha MOs
 -- Occupied --
-20.6022 -20.5889 -20.5839 -20.5787 -20.5651 -11.3642 -11.3489 -11.3312
-11.3110 -11.2861 -11.2852 -11.2830 -11.2657 -11.2434  -1.4305  -1.4057
 -1.3935  -1.3754  -1.3661  -1.1454  -1.0674  -0.9879  -0.9628  -0.9345
 -0.9052  -0.8266  -0.8034  -0.7370  -0.7227  -0.7001  -0.6964  -0.6611
 -0.6496  -0.6381  -0.6284  -0.6232  -0.6134  -0.6052  -0.5892  -0.5803
 -0.5625  -0.5514  -0.5482  -0.5380  -0.5290  -0.5146  -0.5118  -0.4986
 -0.4645  -0.4328  -0.4275  -0.3874  -0.3390
 -- Virtual --
 -0.0006   0.0010   0.0012   0.0013   0.0018   0.0021   0.0025   0.0029
  0.0031   0.0036   0.0043   0.0045   0.0057   0.0058   0.0065   0.0069
  0.0076   0.0079   0.0083   0.0090   0.0100   0.0104   0.0108   0.0114
  0.0118   0.0125   0.0129   0.0134   0.0140   0.0147   0.0155   0.0165
  0.0172   0.0179   0.0183   0.0191   0.0201   0.0207   0.0215   0.0219
  0.0227   0.0232   0.0234   0.0237   0.0241   0.0245   0.0247   0.0253
  0.0259   0.0265   0.0270   0.0284   0.0286   0.0289   0.0299   0.0312
  0.0314   0.0335   0.0364   0.0377   0.0388   0.0404   0.0413   0.0414
  0.0429   0.0437   0.0441   0.0451   0.0461   0.0469   0.0477   0.0482
  0.0489   0.0502   0.0507   0.0513   0.0528   0.0534   0.0539   0.0550
  0.0557   0.0570   0.0577   0.0582   0.0594   0.0599   0.0612   0.0626
  0.0645   0.0650   0.0664   0.0668   0.0693   0.0700   0.0727   0.0743
  0.0757   0.0769   0.0779   0.0805   0.0814   0.0826   0.0862   0.0871
  0.0880   0.0893   0.0920   0.0933   0.0947   0.0959   0.0965   0.0977
  0.1015   0.1028   0.1051   0.1067   0.1083   0.1098   0.1122   0.1123
  0.1147   0.1156   0.1162   0.1174   0.1193   0.1209   0.1234   0.1250
  0.1270   0.1281   0.1303   0.1322   0.1325   0.1345   0.1357   0.1387
  0.1394   0.1405   0.1425   0.1447   0.1479   0.1487   0.1522   0.1538
  0.1560   0.1564   0.1577   0.1599   0.1614   0.1657   0.1693   0.1733
  0.1755   0.1773   0.1816   0.1819   0.1832   0.1857   0.1862   0.1926
  0.1936   0.1951   0.1957   0.1986   0.2037   0.2054   0.2079   0.2125
  0.2150   0.2168   0.2206   0.2230   0.2246   0.2254   0.2285   0.2341
  0.2371   0.2400   0.2406   0.2438   0.2475   0.2483   0.2553   0.2581
  0.2593   0.2652   0.2720   0.2745   0.2764   0.2793   0.2826   0.2866
  0.2914   0.2924   0.2929   0.2965   0.2978   0.3039   0.3098   0.3148
  0.3208   0.3226   0.3272   0.3292   0.3375   0.3404   0.3422   0.3475
  0.3524   0.3580   0.3603   0.3645   0.3719   0.3763   0.3796   0.3840
  0.3889   0.3927   0.3981   0.3988   0.4037   0.4051   0.4107   0.4140
  0.4155   0.4219   0.4308   0.4351   0.4380   0.4391   0.4469   0.4523
  0.4586   0.4665   0.4703   0.4715   0.4762   0.4797   0.4834   0.4859
  0.4903   0.4947   0.4983   0.5035   0.5114   0.5147   0.5190   0.5250
  0.5274   0.5326   0.5372   0.5400   0.5479   0.5504   0.5601   0.5648
  0.5673   0.5730   0.5769   0.5818   0.5832   0.5874   0.5911   0.6007
  0.6012   0.6089   0.6196   0.6252   0.6327   0.6329   0.6394   0.6476
  0.6528   0.6585   0.6675   0.6699   0.6821   0.6832   0.6841   0.6888
  0.6932   0.6969   0.7043   0.7079   0.7168   0.7193   0.7273   0.7301
  0.7357   0.7380   0.7473   0.7504   0.7596   0.7607   0.7641   0.7663
  0.7742   0.7778   0.7820   0.7932   0.8008   0.8082   0.8104   0.8209
  0.8244   0.8278   0.8357   0.8374   0.8467   0.8512   0.8562   0.8622
  0.8646   0.8761   0.8882   0.8962   0.9033   0.9065   0.9166   0.9190
  0.9281   0.9461   0.9524   0.9603   0.9653   0.9764   0.9831   0.9853
  0.9974   1.0026   1.0214   1.0267   1.0345   1.0386   1.0466   1.0712
  1.0780   1.0847   1.0971   1.1106   1.1149   1.1250   1.1278   1.1460
  1.1505   1.1577   1.1652   1.1778   1.1833   1.1895   1.1923   1.2148
  1.2207   1.2328   1.2480   1.2530   1.2735   1.2841   1.2971   1.3031
  1.3103   1.3185   1.3368   1.3565   1.3658   1.3711   1.3801   1.3949
  1.4013   1.4282   1.4360   1.4431   1.4583   1.4766   1.4807   1.4941
  1.5001   1.5115   1.5256   1.5454   1.5514   1.5577   1.5704   1.5851
  1.5998   1.6229   1.6290   1.6370   1.6660   1.6789   1.6833   1.6855
  1.6945   1.6990   1.7060   1.7188   1.7229   1.7452   1.7521   1.7683
  1.7753   1.7777   1.7852   1.7941   1.8018   1.8085   1.8174   1.8258
  1.8317   1.8534   1.8621   1.8884   1.8914   1.9119   1.9213   1.9259
  1.9345   1.9530   1.9578   1.9587   1.9638   1.9805   1.9891   1.9983
  2.0040   2.0221   2.0427   2.0542   2.0604   2.0726   2.0987   2.0995
  2.1146   2.1270   2.1448   2.1517   2.1627   2.1686   2.1756   2.1883
  2.2002   2.2055   2.2207   2.2278   2.2423   2.2434   2.2624   2.2771
  2.2850   2.2879   2.2970   2.3065   2.3108   2.3260   2.3280   2.3509
  2.3637   2.3695   2.3976   2.4018   2.4185   2.4405   2.4443   2.4569
  2.4638   2.5113   2.5173   2.5194   2.5355   2.5422   2.5461   2.5580
  2.5835   2.5928   2.5997   2.6047   2.6366   2.6484   2.6838   2.6893
  2.7041   2.7321   2.7441   2.7552   2.7612   2.7976   2.8103   2.8326
  2.8436   2.8845   2.9042   2.9402   2.9519   2.9770   2.9830   2.9910
  3.0409   3.0574   3.0700   3.0990   3.1167   3.1593   3.1803   3.2160
  3.2805   3.3424   3.3774   3.4305   3.4948   3.5243   3.6130   3.6674
  3.7273   3.7374   3.7878   3.8231   3.8303   3.8573   3.8599   3.8726
  3.8816   3.9104   3.9132   3.9448   3.9548   3.9855   4.0242   4.0499
  4.0568   4.0893   4.1147   4.1358   4.1740   4.1911   4.2023   4.2423
  4.2685   4.3100   4.4272   4.8827
 --------------------------------------------------------------

          Ground-State Mulliken Net Atomic Charges

     Atom                 Charge (a.u.)
  ----------------------------------------
      1 C                     1.483880
      2 C                     0.369085
      3 C                     0.364039
      4 C                     2.038354
      5 C                    -0.340893
      6 C                     0.471588
      7 O                    -0.923960
      8 C                     0.719078
      9 O                    -1.092465
     10 O                    -1.201694
     11 C                     0.942139
     12 O                    -1.281355
     13 C                     1.268049
     14 H                     0.093761
     15 H                    -0.295556
     16 H                    -0.053538
     17 H                    -0.245042
     18 H                    -0.596878
     19 H                    -0.272416
     20 H                    -0.124319
     21 H                    -0.139964
     22 H                    -0.330185
     23 H                    -0.961929
     24 O                    -0.366869
     25 H                     0.184707
     26 H                     0.292386
  ----------------------------------------
  Sum of atomic charges =     0.000000

 -----------------------------------------------------------------
                    Cartesian Multipole Moments
 -----------------------------------------------------------------
    Charge (ESU x 10^10)
                 0.0000
    Dipole Moment (Debye)
         X      -4.9501      Y      -2.1066      Z       2.7847
       Tot       6.0577
    Quadrupole Moments (Debye-Ang)
        XX     -83.9766     XY      -4.4011     YY     -75.3163
        XZ      -3.4713     YZ      -6.0262     ZZ     -79.0906
    Octopole Moments (Debye-Ang^2)
       XXX     -70.6337    XXY     -55.6208    XYY     -34.7153
       YYY     -27.0205    XXZ      34.4050    XYZ       1.1096
       YYZ       4.6395    XZZ     -17.0136    YZZ     -13.0322
       ZZZ      21.7549
    Hexadecapole Moments (Debye-Ang^3)
      XXXX   -1781.7753   XXXY       0.1098   XXYY    -552.5368
      XYYY      -4.3754   YYYY   -1405.0761   XXXZ     -86.5728
      XXYZ     -64.0247   XYYZ     -14.7547   YYYZ      -1.1474
      XXZZ    -317.8616   XYZZ      34.2011   YYZZ    -303.7270
      XZZZ     -66.7595   YZZZ     -25.7212   ZZZZ    -271.1495
 -----------------------------------------------------------------
 Total job time:  2360.18s(wall), 62440.58s(cpu) 
 Tue May  6 19:18:42 2025

        *************************************************************
        *                                                           *
        *  Thank you very much for using Q-Chem.  Have a nice day.  *
        *                                                           *
        *************************************************************


