                  Welcome to Q-Chem
     A Quantum Leap Into The Future Of Chemistry


 Q-Chem 6.2 (devel), Q-Chem, Inc., Pleasanton, CA (2024)

 E. Epifanovsky,  A. T. B. Gilbert,  Xintian Feng,  Joonho Lee,  Yuezhi Mao,  
 N. Mardirossian,  P. Pokhilko,  A. White,  M. Wormit,  M. P. Coons,  
 A. L. Dempwolff,  Zhengting Gan,  D. Hait,  P. R. Horn,  L. D. Jacobson,  
 I. Kaliman,  J. Kussmann,  A. W. Lange,  Ka Un Lao,  D. S. Levine,  Jie Liu,  
 S. C. McKenzie,  A. F. Morrison,  K. D. Nanda,  F. Plasser,  D. R. Rehn,  
 M. L. Vidal,  Zhi-Qiang You,  Ying Zhu,  Huseyin Aksu,  B. Alam,  
 B. Albrecht,  A. Aldossary,  E. Alguire,  J. H. Andersen,  
 J. E. Arias-Martinez,  V. Athavale,  D. Barton,  K. Begam,  A. Behn,  
 N. Bellonzi,  Y. A. Bernard,  E. J. Berquist,  H. Burton,  A. Carreras,  
 K. Carter-Fenk,  Mathew Chow,  Romit Chakraborty,  Chandrima Chakravarty,  
 Junhan Chen,  A. D. Chien,  K. D. Closser,  V. Cofer-Shabica,  L. Cunha,  
 S. Dasgupta,  Jia Deng,  Joseph Dickinson,  M. de Wergifosse,  
 M. Diedenhofen,  Hainam Do,  Wenjie Dou,  S. Ehlert,  Po-Tung Fang,  
 S. Fatehi,  Qingguo Feng,  Jonathan Fetherolf,  T. Friedhoff,  
 Thomas Froitzheim,  Sarai Folkestad,  B. Ganoe,  J. Gayvert,  Qinghui Ge,  
 G. Gidofalvi,  M. Gimferrer,  M. Goldey,  Montgomery Gray,  J. Gomes,  
 C. Gonzalez-Espinoza,  S. Gulania,  A. Gunina,  J. A. Gyamfi,  
 M. W. D. Hanson-Heine,  P. H. P. Harbach,  A. W. Hauser,  M. F. Herbst,  
 M. Hernandez Vera,  M. Hodecker,  Z. C. Holden,  S. Houck,  Xunkun Huang,  
 Kerwin Hui,  B. C. Huynh,  K. Ikeda,  M. Ivanov,  Nayanthara K. Jayadev,  
 Hyunjun Ji,  Zuxin Jin,  Hanjie Jiang,  Subrata Jana,  B. Kaduk,  
 S. Kaehler,  R. Kang,  K. Khistyaev,  Jaehoon Kim,  Yongbin Kim,  
 P. Klunzinger,  Z. Koczor-Benda,  Joong Hoon Koh,  D. Kosenkov,  
 Saikiran Kotaru,  L. Koulias,  T. Kowalczyk,  C. M. Krauter,  K. Kue,  
 A. Kunitsa,  T. Kus,  A. Landau,  K. V. Lawler,  D. Lefrancois,  S. Lehtola,  
 Rain Li,  Shaozhi Li,  Tao E. Li,  Yi-Pei Li,  Jiashu Liang,  M. Liebenthal,  
 Hung-Hsuan Lin,  You-Sheng Lin,  Fenglai Liu,  Kuan-Yu Liu,  Xiao Liu,  
 M. Loipersberger,  A. Luenser,  C. Malbon,  Aniket Mandal,  Manisha,  
 A. Manjanath,  P. Manohar,  E. Mansoor,  S. F. Manzer,  Shan-Ping Mao,  
 A. V. Marenich,  T. Markovich,  S. Mason,  F. Matz,  S. A. Maurer,  
 Samuel May,  Alexandra McIsaac,  P. F. McLaughlin,  M. F. S. J. Menger,  
 J.-M. Mewes,  S. A. Mewes,  P. Morgante,  Mohammad Mostafanejad,  
 Madhubani Mukherjee,  J. W. Mullinax,  Quyen Nguyen,  Avik Kumar Ojha,  
 K. J. Oosterbaan,  Eno Paenurk,  Xiaoliang Pan,  G. Paran,  V. Parravicini,  
 Alexander C. Paul,  Suranjan K. Paul,  F. Pavosevic,  Zheng Pei,  S. Prager,  
 E. I. Proynov,  E. Ramos,  B. Rana,  A. E. Rask,  A. Rettig,  R. M. Richard,  
 F. Rob,  E. Rossomme,  T. Scheele,  M. Scheurer,  M. Schneider,  
 P. E. Schneider,  Tim K. Schramm,  N. Sergueev,  S. M. Sharada,  
 Hengyuan Shen,  W. Skomorowski,  D. W. Small,  C. J. Stein,  
 Alistair J. Sterling,  Yingli Su,  Yu-Chuan Su,  E. J. Sundstrom,  
 J. Talbot,  Zhen Tao,  J. Thirman,  Hung-Yi Tsai,  T. Tsuchimochi,  
 N. M. Tubman,  C. Utku,  S. P. Veccham,  O. Vydrov,  Rahel Weiss,  
 J. Wenzel,  Jonathan Wong,  J. Witte,  H. Wu,  Yanze Wu,  A. Yamada,  
 Chou-Hsun Yang,  Kun Yao,  S. Yeganeh,  S. R. Yost,  Qi Yu,  A. Zech,  
 F. Zeller,  Chongxiao Zhao,  Igor Ying Zhang,  Xing Zhang,  Yu Zhang,  
 D. Zuev,  A. Aspuru-Guzik,  A. T. Bell,  N. A. Besley,  K. B. Bravaya,  
 B. R. Brooks,  D. Casanova,  Jeng-Da Chai,  Hsing-Ta Chen,  S. Coriani,  
 C. J. Cramer,  A. E. DePrince, III,  R. A. DiStasio Jr.,  A. Dreuw,  
 B. D. Dunietz,  T. R. Furlani,  W. A. Goddard III,  S. Grimme,  
 S. Hammes-Schiffer,  T. Head-Gordon,  W. J. Hehre,  Chao-Ping Hsu,  
 T.-C. Jagau,  Yousung Jung,  A. Klamt,  Jing Kong,  D. S. Lambrecht,  
 Xiangyuan Li,  WanZhen Liang,  N. J. Mayhall,  C. W. McCurdy,  J. B. Neaton,  
 T. Neudecker,  C. Ochsenfeld,  J. A. Parkhill,  R. Peverati,  
 V. A. Rassolov,  Haisheng Ren,  Yihan Shao,  L. V. Slipchenko,  
 R. P. Steele,  J. E. Subotnik,  A. J. W. Thom,  A. Tkatchenko,  
 D. G. Truhlar,  T. Van Voorhis,  Fan Wang,  T. A. Wesolowski,  K. B. Whaley,  
 H. L. Woodcock III,  P. M. Zimmerman,  S. Faraji,  P. M. W. Gill,  
 M. Head-Gordon,  J. M. Herbert,  A. I. Krylov

 Contributors to earlier versions of Q-Chem not listed above: 
 R. D. Adamson,  B. Austin,  R. Baer,  J. Baker,  G. J. O. Beran,  
 K. Brandhorst,  S. T. Brown,  E. F. C. Byrd,  Arup K. Chakraborty,  
 G. K. L. Chan,  Chun-Min Chang,  Yunqing Chen,  C.-L. Cheng,  
 Siu Hung Chien,  D. M. Chipman,  D. L. Crittenden,  H. Dachsel,  
 R. J. Doerksen,  A. D. Dutoi,  R. G. Edgar,  J. Fosso-Tande,  
 L. Fusti-Molnar,  D. Ghosh,  A. Ghysels,  A. Golubeva-Zadorozhnaya,  
 J. Gonthier,  M. S. Gordon,  S. R. Gwaltney,  G. Hawkins,  J. E. Herr,  
 A. Heyden,  S. Hirata,  E. G. Hohenstein,  G. Kedziora,  F. J. Keil,  
 C. Kelley,  Jihan Kim,  R. A. King,  R. Z. Khaliullin,  P. P. Korambath,  
 W. Kurlancheek,  A. Laurent,  A. M. Lee,  M. S. Lee,  S. V. Levchenko,  
 Ching Yeh Lin,  D. Liotard,  E. Livshits,  R. C. Lochan,  I. Lotan,  
 L. A. Martinez-Martinez,  P. E. Maslen,  N. Nair,  D. P. O'Neill,  
 D. Neuhauser,  E. Neuscamman,  C. M. Oana,  R. Olivares-Amaya,  R. Olson,  
 T. M. Perrine,  B. Peters,  P. A. Pieniazek,  A. Prociuk,  Y. M. Rhee,  
 J. Ritchie,  M. A. Rohrdanz,  E. Rosta,  N. J. Russ,  H. F. Schaefer III,  
 M. W. Schmidt,  N. E. Schultz,  S. Sharma,  N. Shenvi,  C. D. Sherrill,  
 A. C. Simmonett,  A. Sodt,  T. Stein,  D. Stuck,  K. S. Thanthiriwatte,  
 V. Vanovschi,  L. Vogt,  Tao Wang,  A. Warshel,  M. A. Watson,  
 C. F. Williams,  Q. Wu,  X. Xu,  Jun Yang,  W. Zhang,  Yan Zhao

   Please cite Q-Chem as follows:
  "Software for the frontiers of quantum chemistry:
   An overview of developments in the Q-Chem 5 package"
   J. Chem. Phys. 155, 084801 (2021)
   https://doi.org/10.1063/5.0055522 (open access)

 Q-Chem 6.2.1 for Intel X86 EM64T Linux

 Parts of Q-Chem use Armadillo 9.900.5 (Nocturnal Misbehaviour).
 http://arma.sourceforge.net/

 Q-Chem begins on Wed May  7 11:52:10 2025  

 Host: m33c20n3
0

     Scratch files written to /scratch/leuven/372/vsc37243/qchem927414//
 Processing $rem in /data/leuven/372/vsc37243/qchem-dyson-EA-NoL/config/preferences:
 Processing $rem in /user/leuven/372/vsc37243/.qchemrc:

 Checking the input file for inconsistencies... 	...done.

--------------------------------------------------------------
User input:
--------------------------------------------------------------
$molecule
0 1
C 0.000000 0.000000 0.000000
C -0.746907 -1.288750 0.044623
C 0.021745 -2.569166 -0.000000
C 1.366152 -2.533838 0.002684
C 2.127142 -1.266540 0.000000
C 1.367901 0.000000 0.029472
O -1.974175 -1.313865 0.146738
C -0.788159 -3.829555 -0.019921
O 3.357976 -1.272804 -0.063246
O 2.088121 1.150859 0.124924
C 2.246402 1.877060 -1.113299
O -0.626223 1.195560 0.031403
C -1.996547 1.359569 -0.412331
H -1.445850 -3.850126 -0.896106
H -0.136224 -4.705935 -0.039243
H -1.441762 -3.880706 0.857377
H -2.694228 1.023065 0.353957
H -2.089833 2.433790 -0.580829
H -2.174155 0.811865 -1.340716
H 2.808696 1.269546 -1.830707
H 1.269558 2.153446 -1.524746
H 2.812735 2.773212 -0.858303
H 1.968018 -3.439281 -0.008013
O -2.556479 -1.284446 -2.352629
H -2.505176 -1.284790 -1.389135
H -1.624321 -1.283616 -2.601695
$end

$rem
   CCMAN2                       1
   MEM_TOTAL                    120000
   CC_MEMORY			115000
   MEM_STATIC                   2000
   METHOD                       cc2
   BASIS                        gen
   PURECART                     11
   AUX_BASIS                    rimp2-aug-cc-pVDZ
   N_FROZEN_CORE                fc
   EA_STATES                    [2]
   SCF_CONVERGENCE              10
   MAX_SCF_CYCLES               200
   CC_CONVERGENCE               8
   EOM_DAVIDSON_CONVERGENCE     8
   CC_TRANS_PROP		TRUE
   CC_DO_DYSON			TRUE
   CC_EOM_PROP			TRUE
   !PRINT_ORBITALS               TRUE
$end

$basis
H     0
S   4   1.00
      1.301000D+01           1.968500D-02
      1.962000D+00           1.379770D-01
      4.446000D-01           4.781480D-01
      1.220000D-01           5.012400D-01
S   1   1.00
      1.220000D-01           1.000000D+00
S   1   1.00
      0.0297400              1.0000000
S   1   1.00
      0.01487              1.0000000
S   1   1.00
      0.007435              1.0000000
S   1   1.00
      0.0037175              1.0000000
P   1   1.00
      7.270000D-01           1.0000000
P   1   1.00
      0.1410000              1.0000000
****
C     0
S   9   1.00
      6.665000D+03           6.920000D-04
      1.000000D+03           5.329000D-03
      2.280000D+02           2.707700D-02
      6.471000D+01           1.017180D-01
      2.106000D+01           2.747400D-01
      7.495000D+00           4.485640D-01
      2.797000D+00           2.850740D-01
      5.215000D-01           1.520400D-02
      1.596000D-01          -3.191000D-03
S   9   1.00
      6.665000D+03          -1.460000D-04
      1.000000D+03          -1.154000D-03
      2.280000D+02          -5.725000D-03
      6.471000D+01          -2.331200D-02
      2.106000D+01          -6.395500D-02
      7.495000D+00          -1.499810D-01
      2.797000D+00          -1.272620D-01
      5.215000D-01           5.445290D-01
      1.596000D-01           5.804960D-01
S   1   1.00
      1.596000D-01           1.000000D+00
S   1   1.00
      0.0469000              1.0000000
S   1   1.00
      0.02345              1.0000000
S   1   1.00
      0.011725              1.0000000
S   1   1.00
      0.0058625              1.0000000
S   1   1.00
      0.00293125              1.0000000
S   1   1.00
      0.00146562              1.0000000
S   1   1.00
      0.00073281              1.0000000
P   4   1.00
      9.439000D+00           3.810900D-02
      2.002000D+00           2.094800D-01
      5.456000D-01           5.085570D-01
      1.517000D-01           4.688420D-01
P   1   1.00
      1.517000D-01           1.000000D+00
P   1   1.00
      0.0404100              1.0000000
P   1   1.00
      0.020205              1.0000000
P   1   1.00
      0.0101025              1.0000000
P   1   1.00
      0.00505125              1.0000000
D   1   1.00
      5.500000D-01           1.0000000
D   1   1.00
      0.1510000              1.0000000
****
N     0
S   9   1.00
      9.046000D+03           7.000000D-04
      1.357000D+03           5.389000D-03
      3.093000D+02           2.740600D-02
      8.773000D+01           1.032070D-01
      2.856000D+01           2.787230D-01
      1.021000D+01           4.485400D-01
      3.838000D+00           2.782380D-01
      7.466000D-01           1.544000D-02
      2.248000D-01          -2.864000D-03
S   9   1.00
      9.046000D+03          -1.530000D-04
      1.357000D+03          -1.208000D-03
      3.093000D+02          -5.992000D-03
      8.773000D+01          -2.454400D-02
      2.856000D+01          -6.745900D-02
      1.021000D+01          -1.580780D-01
      3.838000D+00          -1.218310D-01
      7.466000D-01           5.490030D-01
      2.248000D-01           5.788150D-01
S   1   1.00
      2.248000D-01           1.000000D+00
S   1   1.00
      0.0612400              1.0000000
S   1   1.00
      0.03062              1.0000000
S   1   1.00
      0.01531              1.0000000
S   1   1.00
      0.007655              1.0000000
S   1   1.00
      0.0038275              1.0000000
S   1   1.00
      0.00191375              1.0000000
S   1   1.00
      0.000956875              1.0000000
P   4   1.00
      1.355000D+01           3.991900D-02
      2.917000D+00           2.171690D-01
      7.973000D-01           5.103190D-01
      2.185000D-01           4.622140D-01
P   1   1.00
      2.185000D-01           1.000000D+00
P   1   1.00
      0.0561100              1.0000000
P   1   1.00
      0.028055              1.0000000
P   1   1.00
      0.0140275              1.0000000
P   1   1.00
      0.00701375              1.0000000
D   1   1.00
      8.170000D-01           1.0000000
D   1   1.00
      0.2300000              1.0000000
****
O     0
S   9   1.00
      1.172000D+04           7.100000D-04
      1.759000D+03           5.470000D-03
      4.008000D+02           2.783700D-02
      1.137000D+02           1.048000D-01
      3.703000D+01           2.830620D-01
      1.327000D+01           4.487190D-01
      5.025000D+00           2.709520D-01
      1.013000D+00           1.545800D-02
      3.023000D-01          -2.585000D-03
S   9   1.00
      1.172000D+04          -1.600000D-04
      1.759000D+03          -1.263000D-03
      4.008000D+02          -6.267000D-03
      1.137000D+02          -2.571600D-02
      3.703000D+01          -7.092400D-02
      1.327000D+01          -1.654110D-01
      5.025000D+00          -1.169550D-01
      1.013000D+00           5.573680D-01
      3.023000D-01           5.727590D-01
S   1   1.00
      3.023000D-01           1.000000D+00
S   1   1.00
      0.0789600              1.0000000
S   1   1.00
      0.03948              1.0000000
S   1   1.00
      0.01974              1.0000000
S   1   1.00
      0.00987              1.0000000
S   1   1.00
      0.004935              1.0000000
S   1   1.00
      0.0024675              1.0000000
S   1   1.00
      0.00123375              1.0000000
P   4   1.00
      1.770000D+01           4.301800D-02
      3.854000D+00           2.289130D-01
      1.046000D+00           5.087280D-01
      2.753000D-01           4.605310D-01
P   1   1.00
      2.753000D-01           1.000000D+00
P   1   1.00
      0.0685600              1.0000000
P   1   1.00
      0.03428              1.0000000
P   1   1.00
      0.01714              1.0000000
P   1   1.00
      0.00857              1.0000000
D   1   1.00
      1.185000D+00           1.0000000
D   1   1.00
      0.3320000              1.0000000
****
S     0
S   12   1.00
      1.108000D+05           2.476350D-04
      1.661000D+04           1.920260D-03
      3.781000D+03           9.961920D-03
      1.071000D+03           4.029750D-02
      3.498000D+02           1.286040D-01
      1.263000D+02           3.034800D-01
      4.926000D+01           4.214320D-01
      2.016000D+01           2.307810D-01
      5.720000D+00           1.789710D-02
      2.182000D+00          -2.975160D-03
      4.327000D-01           8.495220D-04
      1.570000D-01          -3.679360D-04
S   12   1.00
      1.108000D+05          -6.870390D-05
      1.661000D+04          -5.276810D-04
      3.781000D+03          -2.796710D-03
      1.071000D+03          -1.126510D-02
      3.498000D+02          -3.888340D-02
      1.263000D+02          -9.950250D-02
      4.926000D+01          -1.997400D-01
      2.016000D+01          -1.233600D-01
      5.720000D+00           5.131940D-01
      2.182000D+00           6.071200D-01
      4.327000D-01           3.967530D-02
      1.570000D-01          -9.468640D-03
S   12   1.00
      1.108000D+05           1.990770D-05
      1.661000D+04           1.534830D-04
      3.781000D+03           8.095030D-04
      1.071000D+03           3.289740D-03
      3.498000D+02           1.129670D-02
      1.263000D+02           2.963850D-02
      4.926000D+01           5.998510D-02
      2.016000D+01           4.132480D-02
      5.720000D+00          -2.074740D-01
      2.182000D+00          -3.928890D-01
      4.327000D-01           6.328400D-01
      1.570000D-01           5.569240D-01
S   1   1.00
      1.570000D-01           1.000000D+00
S   1   1.00
      0.0507000              1.0000000
S   1   1.00
      0.02535              1.0000000
S   1   1.00
      0.012675              1.0000000
S   1   1.00
      0.0063375              1.0000000
S   1   1.00
      0.00316875              1.0000000
S   1   1.00
      0.00158438              1.0000000
S   1   1.00
      0.00079219              1.0000000
P   8   1.00
      3.997000D+02           4.475410D-03
      9.419000D+01           3.417080D-02
      2.975000D+01           1.442500D-01
      1.077000D+01           3.539280D-01
      4.119000D+00           4.590850D-01
      1.625000D+00           2.063830D-01
      4.726000D-01           1.021410D-02
      1.407000D-01          -6.031220D-05
P   8   1.00
      3.997000D+02          -1.162510D-03
      9.419000D+01          -8.656640D-03
      2.975000D+01          -3.908860D-02
      1.077000D+01          -9.346250D-02
      4.119000D+00          -1.479940D-01
      1.625000D+00           3.019040D-02
      4.726000D-01           5.615730D-01
      1.407000D-01           5.347760D-01
P   1   1.00
      1.407000D-01           1.000000D+00
P   1   1.00
      0.0399000              1.0000000
P   1   1.00
      0.01995              1.0000000
P   1   1.00
      0.009975              1.0000000
P   1   1.00
      0.0049875              1.0000000
D   1   1.00
      4.790000D-01           1.0000000
D   1   1.00
      0.1520000              1.0000000
****
$end

--------------------------------------------------------------
 ----------------------------------------------------------------
             Standard Nuclear Orientation (Angstroms)
    I     Atom           X                Y                Z
 ----------------------------------------------------------------
    1      C       0.2080367541    -0.5966911972    -0.4200341291
    2      C      -1.0807003999     0.1508963345    -0.4517716735
    3      C      -1.0700501298     1.6179281800    -0.1689530422
    4      C       0.1033812104     2.2451492140     0.0268481776
    5      C       1.3968179721     1.5295026648     0.0215035668
    6      C       1.3860145038     0.0765701692    -0.2436558471
    7      O      -2.1397504680    -0.4112030448    -0.7340874920
    8      C      -2.4038819920     2.3001532866    -0.1493766807
    9      O       2.4462680746     2.1264315229     0.2691364612
   10      O       2.5936548100    -0.5435426994    -0.3404509485
   11      C       2.9951213670    -1.2856399608     0.8316127116
   12      O       0.2758795266    -1.9234114034    -0.6602755917
   13      C      -0.8552240834    -2.8042886326    -0.4452253410
   14      H      -3.0510277205     1.8573111605     0.6159820778
   15      H      -2.2875368510     3.3675451125     0.0520506921
   16      H      -2.9197700205     2.1637824678    -1.1057906230
   17      H      -1.5620876950    -2.7350245699    -1.2715045570
   18      H      -0.4069444646    -3.7981546322    -0.3970551328
   19      H      -1.3601177645    -2.5685574381     0.4944214843
   20      H       3.1131362848    -0.6034828851     1.6805274567
   21      H       2.2615317775    -2.0654779360     1.0631318290
   22      H       3.9549768153    -1.7371479487     0.5792984445
   23      H       0.1627320147     3.3143696258     0.2150749742
   24      O      -2.8294164934    -1.1176468879     1.6348947149
   25      H      -2.7068269165    -0.9393909321     0.6946025188
   26      H      -2.0482402711    -0.7022722748     2.0198372285
 ----------------------------------------------------------------
 Molecular Point Group                 C1    NOp =  1
 Largest Abelian Subgroup              C1    NOp =  1
 Nuclear Repulsion Energy =         942.17436557 hartrees
 There are       53 alpha and       53 beta electrons
 Requested basis set is non-standard
 There are 348 shells and 676 basis functions
 Total memory of 120000 MB is distributed as follows: 
   MEM_STATIC is set to 2000 MB
   QALLOC/CCMAN JOB total memory use is  118000 MB
 Warning: actual memory use might exceed 120000 MB

 Total QAlloc Memory Limit 120000 MB
 Mega-Array Size      1956 MB
 MEM_STATIC part      2000 MB

 Requested basis set is rimp2-aug-cc-pVDZ
 There are 416 shells and 1284 basis functions
 A cutoff of  1.0D-14 yielded  60584 shell pairs
 There are    227758 function pairs (    246895 Cartesian)
 Smallest overlap matrix eigenvalue = 1.59E-11
 Linear dependence detected in AO basis
 Tighter screening thresholds may be required for diffuse basis sets
 Use S2THRESH > 14 and THRESH = 14 in case of SCF convergence issues
 Number of orthogonalized atomic orbitals = 592
 Maximum deviation from orthogonality = 6.080E-10

 Scale SEOQF with 1.000000e-02/1.000000e-02/1.000000e-02

 Standard Electronic Orientation quadrupole field applied
 Nucleus-field energy     =     0.0000000030 hartrees
 ================ Generating on-the-fly SAD Guess ================
 Attempting to make child job directory: /scratch/leuven/372/vsc37243/qchem927414//Frg1/
 Attempting to make child job directory: /scratch/leuven/372/vsc37243/qchem927414//Frg2/
 Attempting to make child job directory: /scratch/leuven/372/vsc37243/qchem927414//Frg3/
 Creating input file /scratch/leuven/372/vsc37243/qchem927414/Frg1.input
 using default PutDataFrgm: nothing
 calling putenv with: QCSCRATCH=/scratch/leuven/372/vsc37243/qchem927414/ 
 Spawning Job For Fragment 0
 Done Job For Fragment 0
 calling putenv with: QCSCRATCH=/scratch/leuven/372/vsc37243 
 calling putenv with: QCTHREADS=36 
 Creating input file /scratch/leuven/372/vsc37243/qchem927414/Frg2.input
 using default PutDataFrgm: nothing
 calling putenv with: QCSCRATCH=/scratch/leuven/372/vsc37243/qchem927414/ 
 Spawning Job For Fragment 1
 Done Job For Fragment 1
 calling putenv with: QCSCRATCH=/scratch/leuven/372/vsc37243 
 calling putenv with: QCTHREADS=36 
 Creating input file /scratch/leuven/372/vsc37243/qchem927414/Frg3.input
 using default PutDataFrgm: nothing
 calling putenv with: QCSCRATCH=/scratch/leuven/372/vsc37243/qchem927414/ 
 Spawning Job For Fragment 2
 Done Job For Fragment 2
 calling putenv with: QCSCRATCH=/scratch/leuven/372/vsc37243 
 calling putenv with: QCTHREADS=36 
 Time for running child jobs:  CPU 2.88 s  wall 22.80 s
 ============= Method Specific SAD Guess Constructed =============
 Guess from on-the-fly superposition of atomic densities
 Warning: Energy on first SCF cycle will be non-variational

 -----------------------------------------------------------------------
  General SCF calculation program by
  Eric Jon Sundstrom, Paul Horn, Yuezhi Mao, Dmitri Zuev, Alec White,
  David Stuck, Shaama M.S., Shane Yost, Joonho Lee, David Small,
  Daniel Levine, Susi Lehtola, Hugh Burton, Evgeny Epifanovsky,
  Bang C. Huynh
 -----------------------------------------------------------------------
 Hartree-Fock
 using 36 threads for integral computing
 -------------------------------------------------------
 OpenMP Integral computing Module                
 Release: version 1.0, May 2013, Q-Chem Inc. Pittsburgh 
 -------------------------------------------------------
 A restricted SCF calculation will be
 performed using DIIS
 SCF converges when DIIS error is below 1.0e-10
 ---------------------------------------
  Cycle       Energy         DIIS error
 ---------------------------------------
    1    -726.4900247398      2.24e-02  
    2    -721.7950032708      2.73e-03  
    3    -721.9625342201      2.19e-03  
    4    -722.1256836140      3.48e-04  
    5    -722.1325012406      1.30e-04  
    6    -722.1333315798      3.33e-05  
    7    -722.1334507384      1.65e-05  
    8    -722.1334799703      6.72e-06  
    9    -722.1334846051      2.87e-06  
   10    -722.1334853993      9.53e-07  
   11    -722.1334854989      3.28e-07  
   12    -722.1334855121      1.20e-07  
   13    -722.1334855144      6.47e-08  
   14    -722.1334855151      2.82e-08  
   15    -722.1334855153      1.35e-08  
   16    -722.1334855154      5.27e-09  
   17    -722.1334855154      2.49e-09  
   18    -722.1334855154      1.17e-09  
   19    -722.1334855154      4.03e-10  
   20    -722.1334855154      1.74e-10  
   21    -722.1334855154      7.25e-11  Convergence criterion met
 ---------------------------------------
 SCF time:   CPU 11795.12s  wall 501.00s 
 SCF   energy =  -722.13348552
 Total energy =  -722.13348552


 ------------------------------------------------------------------------------

   CCMAN2: suite of methods based on coupled cluster
           and equation of motion theories.

   Components:
   * libvmm-1.3-trunk
     by Evgeny Epifanovsky, Ilya Kaliman.
   * libtensor-2.5-trunk
     by Evgeny Epifanovsky, Michael Wormit, Dmitry Zuev, Sam Manzer, 
        Ilya Kaliman.
   * libcc-2.5-trunk
     by Evgeny Epifanovsky, Arik Landau, Tomasz Kus, Kirill Khistyaev, 
        Dmitry Zuev, Prashant Manohar, Xintian Feng, Anna Krylov, 
        Matthew Goldey, Alec White, Thomas Jagau, Kaushik Nanda, 
        Anastasia Gunina, Alexander Kunitsa, Joonho Lee.

   CCMAN original authors:
   Anna I. Krylov, C. David Sherrill, Steven R. Gwaltney,
   Edward F. C. Byrd (2000)
   Sergey V. Levchenko, Lyudmila V. Slipchenko, Tao Wang,
   Ana-Maria C. Cristian (2003)
   Piotr A. Pieniazek, C. Melania Oana, Evgeny Epifanovsky (2007)
   Prashant Manohar (2009)

 ------------------------------------------------------------------------------


 Allocating and initializing 115000MB of RAM (this may take a while)...
 Calculation will run on 36 cores.


 Alpha MOs, Restricted
 -- Occupied --                  
-20.617 -20.607 -20.602 -20.590 -20.558 -11.398 -11.370 -11.351
  1 A     2 A     3 A     4 A     5 A     6 A     7 A     8 A                  
-11.337 -11.304 -11.299 -11.298 -11.290 -11.259  -1.456  -1.434
  9 A    10 A    11 A    12 A    13 A    14 A    15 A    16 A                  
 -1.417  -1.396  -1.342  -1.169  -1.088  -1.008  -0.980  -0.954
 17 A    18 A    19 A    20 A    21 A    22 A    23 A    24 A                  
 -0.925  -0.849  -0.826  -0.760  -0.736  -0.716  -0.703  -0.677
 25 A    26 A    27 A    28 A    29 A    30 A    31 A    32 A                  
 -0.668  -0.659  -0.647  -0.640  -0.628  -0.620  -0.600  -0.590
 33 A    34 A    35 A    36 A    37 A    38 A    39 A    40 A                  
 -0.582  -0.569  -0.565  -0.550  -0.542  -0.531  -0.519  -0.489
 41 A    42 A    43 A    44 A    45 A    46 A    47 A    48 A                  
 -0.484  -0.458  -0.448  -0.411  -0.359
 49 A    50 A    51 A    52 A    53 A                                          
 -- Virtual --                   
 -0.012   0.001   0.001   0.001   0.001   0.002   0.002   0.003
 54 A    55 A    56 A    57 A    58 A    59 A    60 A    61 A                  
  0.003   0.003   0.004   0.004   0.005   0.006   0.006   0.006
 62 A    63 A    64 A    65 A    66 A    67 A    68 A    69 A                  
  0.007   0.008   0.009   0.009   0.009   0.010   0.010   0.011
 70 A    71 A    72 A    73 A    74 A    75 A    76 A    77 A                  
  0.012   0.012   0.012   0.013   0.014   0.014   0.015   0.015
 78 A    79 A    80 A    81 A    82 A    83 A    84 A    85 A                  
  0.017   0.018   0.018   0.019   0.020   0.021   0.021   0.022
 86 A    87 A    88 A    89 A    90 A    91 A    92 A    93 A                  
  0.022   0.023   0.023   0.023   0.024   0.024   0.025   0.025
 94 A    95 A    96 A    97 A    98 A    99 A   100 A   101 A                  
  0.026   0.027   0.027   0.027   0.029   0.029   0.031   0.033
102 A   103 A   104 A   105 A   106 A   107 A   108 A   109 A                  
  0.034   0.036   0.037   0.038   0.039   0.040   0.041   0.042
110 A   111 A   112 A   113 A   114 A   115 A   116 A   117 A                  
  0.042   0.043   0.045   0.045   0.046   0.046   0.047   0.048
118 A   119 A   120 A   121 A   122 A   123 A   124 A   125 A                  
  0.049   0.050   0.051   0.051   0.052   0.053   0.054   0.054
126 A   127 A   128 A   129 A   130 A   131 A   132 A   133 A                  
  0.056   0.057   0.058   0.058   0.059   0.061   0.062   0.062
134 A   135 A   136 A   137 A   138 A   139 A   140 A   141 A                  
  0.064   0.065   0.065   0.068   0.069   0.071   0.071   0.074
142 A   143 A   144 A   145 A   146 A   147 A   148 A   149 A                  
  0.075   0.078   0.080   0.081   0.083   0.084   0.085   0.087
150 A   151 A   152 A   153 A   154 A   155 A   156 A   157 A                  
  0.087   0.088   0.090   0.094   0.097   0.097   0.099   0.101
158 A   159 A   160 A   161 A   162 A   163 A   164 A   165 A                  
  0.103   0.104   0.106   0.107   0.108   0.110   0.110   0.111
166 A   167 A   168 A   169 A   170 A   171 A   172 A   173 A                  
  0.113   0.114   0.116   0.117   0.119   0.121   0.123   0.125
174 A   175 A   176 A   177 A   178 A   179 A   180 A   181 A                  
  0.126   0.127   0.128   0.129   0.131   0.132   0.134   0.137
182 A   183 A   184 A   185 A   186 A   187 A   188 A   189 A                  
  0.138   0.139   0.140   0.143   0.146   0.148   0.149   0.150
190 A   191 A   192 A   193 A   194 A   195 A   196 A   197 A                  
  0.154   0.155   0.159   0.159   0.166   0.169   0.172   0.174
198 A   199 A   200 A   201 A   202 A   203 A   204 A   205 A                  
  0.176   0.178   0.179   0.182   0.183   0.186   0.188   0.191
206 A   207 A   208 A   209 A   210 A   211 A   212 A   213 A                  
  0.194   0.198   0.199   0.202   0.205   0.206   0.211   0.212
214 A   215 A   216 A   217 A   218 A   219 A   220 A   221 A                  
  0.216   0.219   0.221   0.222   0.223   0.229   0.231   0.234
222 A   223 A   224 A   225 A   226 A   227 A   228 A   229 A                  
  0.237   0.238   0.240   0.242   0.246   0.249   0.251   0.256
230 A   231 A   232 A   233 A   234 A   235 A   236 A   237 A                  
  0.258   0.267   0.269   0.271   0.273   0.274   0.281   0.281
238 A   239 A   240 A   241 A   242 A   243 A   244 A   245 A                  
  0.284   0.288   0.291   0.296   0.297   0.300   0.307   0.312
246 A   247 A   248 A   249 A   250 A   251 A   252 A   253 A                  
  0.317   0.319   0.325   0.329   0.331   0.334   0.339   0.340
254 A   255 A   256 A   257 A   258 A   259 A   260 A   261 A                  
  0.348   0.353   0.356   0.365   0.367   0.372   0.378   0.379
262 A   263 A   264 A   265 A   266 A   267 A   268 A   269 A                  
  0.384   0.388   0.395   0.397   0.400   0.403   0.407   0.419
270 A   271 A   272 A   273 A   274 A   275 A   276 A   277 A                  
  0.420   0.429   0.430   0.439   0.440   0.448   0.451   0.456
278 A   279 A   280 A   281 A   282 A   283 A   284 A   285 A                  
  0.459   0.464   0.466   0.468   0.474   0.478   0.481   0.484
286 A   287 A   288 A   289 A   290 A   291 A   292 A   293 A                  
  0.485   0.489   0.494   0.500   0.502   0.514   0.516   0.521
294 A   295 A   296 A   297 A   298 A   299 A   300 A   301 A                  
  0.524   0.528   0.536   0.540   0.547   0.551   0.555   0.561
302 A   303 A   304 A   305 A   306 A   307 A   308 A   309 A                  
  0.566   0.568   0.573   0.577   0.580   0.588   0.592   0.596
310 A   311 A   312 A   313 A   314 A   315 A   316 A   317 A                  
  0.609   0.619   0.622   0.627   0.628   0.634   0.643   0.648
318 A   319 A   320 A   321 A   322 A   323 A   324 A   325 A                  
  0.658   0.660   0.667   0.671   0.674   0.678   0.682   0.687
326 A   327 A   328 A   329 A   330 A   331 A   332 A   333 A                  
  0.692   0.699   0.707   0.709   0.715   0.717   0.724   0.726
334 A   335 A   336 A   337 A   338 A   339 A   340 A   341 A                  
  0.732   0.743   0.748   0.750   0.755   0.759   0.762   0.769
342 A   343 A   344 A   345 A   346 A   347 A   348 A   349 A                  
  0.773   0.785   0.793   0.800   0.802   0.810   0.819   0.822
350 A   351 A   352 A   353 A   354 A   355 A   356 A   357 A                  
  0.827   0.828   0.836   0.841   0.845   0.852   0.861   0.877
358 A   359 A   360 A   361 A   362 A   363 A   364 A   365 A                  
  0.881   0.887   0.892   0.899   0.901   0.908   0.914   0.936
366 A   367 A   368 A   369 A   370 A   371 A   372 A   373 A                  
  0.941   0.945   0.955   0.961   0.967   0.981   0.985   1.000
374 A   375 A   376 A   377 A   378 A   379 A   380 A   381 A                  
  1.004   1.006   1.019   1.024   1.043   1.057   1.066   1.074
382 A   383 A   384 A   385 A   386 A   387 A   388 A   389 A                  
  1.085   1.096   1.106   1.111   1.119   1.134   1.144   1.155
390 A   391 A   392 A   393 A   394 A   395 A   396 A   397 A                  
  1.158   1.165   1.170   1.186   1.193   1.205   1.212   1.231
398 A   399 A   400 A   401 A   402 A   403 A   404 A   405 A                  
  1.248   1.254   1.264   1.279   1.283   1.290   1.297   1.317
406 A   407 A   408 A   409 A   410 A   411 A   412 A   413 A                  
  1.341   1.347   1.353   1.363   1.377   1.390   1.401   1.409
414 A   415 A   416 A   417 A   418 A   419 A   420 A   421 A                  
  1.417   1.435   1.440   1.455   1.465   1.479   1.489   1.502
422 A   423 A   424 A   425 A   426 A   427 A   428 A   429 A                  
  1.506   1.519   1.532   1.546   1.550   1.570   1.586   1.607
430 A   431 A   432 A   433 A   434 A   435 A   436 A   437 A                  
  1.612   1.616   1.651   1.663   1.669   1.676   1.678   1.683
438 A   439 A   440 A   441 A   442 A   443 A   444 A   445 A                  
  1.698   1.705   1.713   1.726   1.731   1.742   1.748   1.760
446 A   447 A   448 A   449 A   450 A   451 A   452 A   453 A                  
  1.766   1.778   1.785   1.790   1.801   1.809   1.819   1.831
454 A   455 A   456 A   457 A   458 A   459 A   460 A   461 A                  
  1.848   1.860   1.874   1.889   1.896   1.902   1.925   1.932
462 A   463 A   464 A   465 A   466 A   467 A   468 A   469 A                  
  1.938   1.946   1.949   1.951   1.957   1.972   1.980   1.994
470 A   471 A   472 A   473 A   474 A   475 A   476 A   477 A                  
  2.008   2.021   2.041   2.052   2.064   2.080   2.085   2.101
478 A   479 A   480 A   481 A   482 A   483 A   484 A   485 A                  
  2.111   2.119   2.142   2.152   2.155   2.164   2.174   2.181
486 A   487 A   488 A   489 A   490 A   491 A   492 A   493 A                  
  2.207   2.210   2.216   2.224   2.253   2.258   2.262   2.278
494 A   495 A   496 A   497 A   498 A   499 A   500 A   501 A                  
  2.281   2.288   2.297   2.309   2.317   2.330   2.340   2.357
502 A   503 A   504 A   505 A   506 A   507 A   508 A   509 A                  
  2.374   2.379   2.385   2.401   2.413   2.433   2.440   2.449
510 A   511 A   512 A   513 A   514 A   515 A   516 A   517 A                  
  2.496   2.496   2.505   2.513   2.527   2.541   2.547   2.571
518 A   519 A   520 A   521 A   522 A   523 A   524 A   525 A                  
  2.587   2.592   2.635   2.652   2.668   2.678   2.701   2.724
526 A   527 A   528 A   529 A   530 A   531 A   532 A   533 A                  
  2.733   2.748   2.752   2.786   2.797   2.823   2.829   2.861
534 A   535 A   536 A   537 A   538 A   539 A   540 A   541 A                  
  2.885   2.930   2.934   2.963   2.977   2.984   3.032   3.042
542 A   543 A   544 A   545 A   546 A   547 A   548 A   549 A                  
  3.049   3.087   3.091   3.145   3.161   3.208   3.252   3.342
550 A   551 A   552 A   553 A   554 A   555 A   556 A   557 A                  
  3.374   3.395   3.429   3.494   3.495   3.582   3.652   3.724
558 A   559 A   560 A   561 A   562 A   563 A   564 A   565 A                  
  3.770   3.808   3.809   3.820   3.840   3.864   3.868   3.882
566 A   567 A   568 A   569 A   570 A   571 A   572 A   573 A                  
  3.899   3.926   3.939   3.958   3.991   4.016   4.038   4.072
574 A   575 A   576 A   577 A   578 A   579 A   580 A   581 A                  
  4.096   4.108   4.159   4.178   4.183   4.226   4.253   4.286
582 A   583 A   584 A   585 A   586 A   587 A   588 A   589 A                  
  4.309   4.559   4.887
590 A   591 A   592 A                                                          

 Beta MOs, Restricted
 -- Occupied --                  
-20.617 -20.607 -20.602 -20.590 -20.558 -11.398 -11.370 -11.351
  1 A     2 A     3 A     4 A     5 A     6 A     7 A     8 A                  
-11.337 -11.304 -11.299 -11.298 -11.290 -11.259  -1.456  -1.434
  9 A    10 A    11 A    12 A    13 A    14 A    15 A    16 A                  
 -1.417  -1.396  -1.342  -1.169  -1.088  -1.008  -0.980  -0.954
 17 A    18 A    19 A    20 A    21 A    22 A    23 A    24 A                  
 -0.925  -0.849  -0.826  -0.760  -0.736  -0.716  -0.703  -0.677
 25 A    26 A    27 A    28 A    29 A    30 A    31 A    32 A                  
 -0.668  -0.659  -0.647  -0.640  -0.628  -0.620  -0.600  -0.590
 33 A    34 A    35 A    36 A    37 A    38 A    39 A    40 A                  
 -0.582  -0.569  -0.565  -0.550  -0.542  -0.531  -0.519  -0.489
 41 A    42 A    43 A    44 A    45 A    46 A    47 A    48 A                  
 -0.484  -0.458  -0.448  -0.411  -0.359
 49 A    50 A    51 A    52 A    53 A                                          
 -- Virtual --                   
 -0.012   0.001   0.001   0.001   0.001   0.002   0.002   0.003
 54 A    55 A    56 A    57 A    58 A    59 A    60 A    61 A                  
  0.003   0.003   0.004   0.004   0.005   0.006   0.006   0.006
 62 A    63 A    64 A    65 A    66 A    67 A    68 A    69 A                  
  0.007   0.008   0.009   0.009   0.009   0.010   0.010   0.011
 70 A    71 A    72 A    73 A    74 A    75 A    76 A    77 A                  
  0.012   0.012   0.012   0.013   0.014   0.014   0.015   0.015
 78 A    79 A    80 A    81 A    82 A    83 A    84 A    85 A                  
  0.017   0.018   0.018   0.019   0.020   0.021   0.021   0.022
 86 A    87 A    88 A    89 A    90 A    91 A    92 A    93 A                  
  0.022   0.023   0.023   0.023   0.024   0.024   0.025   0.025
 94 A    95 A    96 A    97 A    98 A    99 A   100 A   101 A                  
  0.026   0.027   0.027   0.027   0.029   0.029   0.031   0.033
102 A   103 A   104 A   105 A   106 A   107 A   108 A   109 A                  
  0.034   0.036   0.037   0.038   0.039   0.040   0.041   0.042
110 A   111 A   112 A   113 A   114 A   115 A   116 A   117 A                  
  0.042   0.043   0.045   0.045   0.046   0.046   0.047   0.048
118 A   119 A   120 A   121 A   122 A   123 A   124 A   125 A                  
  0.049   0.050   0.051   0.051   0.052   0.053   0.054   0.054
126 A   127 A   128 A   129 A   130 A   131 A   132 A   133 A                  
  0.056   0.057   0.058   0.058   0.059   0.061   0.062   0.062
134 A   135 A   136 A   137 A   138 A   139 A   140 A   141 A                  
  0.064   0.065   0.065   0.068   0.069   0.071   0.071   0.074
142 A   143 A   144 A   145 A   146 A   147 A   148 A   149 A                  
  0.075   0.078   0.080   0.081   0.083   0.084   0.085   0.087
150 A   151 A   152 A   153 A   154 A   155 A   156 A   157 A                  
  0.087   0.088   0.090   0.094   0.097   0.097   0.099   0.101
158 A   159 A   160 A   161 A   162 A   163 A   164 A   165 A                  
  0.103   0.104   0.106   0.107   0.108   0.110   0.110   0.111
166 A   167 A   168 A   169 A   170 A   171 A   172 A   173 A                  
  0.113   0.114   0.116   0.117   0.119   0.121   0.123   0.125
174 A   175 A   176 A   177 A   178 A   179 A   180 A   181 A                  
  0.126   0.127   0.128   0.129   0.131   0.132   0.134   0.137
182 A   183 A   184 A   185 A   186 A   187 A   188 A   189 A                  
  0.138   0.139   0.140   0.143   0.146   0.148   0.149   0.150
190 A   191 A   192 A   193 A   194 A   195 A   196 A   197 A                  
  0.154   0.155   0.159   0.159   0.166   0.169   0.172   0.174
198 A   199 A   200 A   201 A   202 A   203 A   204 A   205 A                  
  0.176   0.178   0.179   0.182   0.183   0.186   0.188   0.191
206 A   207 A   208 A   209 A   210 A   211 A   212 A   213 A                  
  0.194   0.198   0.199   0.202   0.205   0.206   0.211   0.212
214 A   215 A   216 A   217 A   218 A   219 A   220 A   221 A                  
  0.216   0.219   0.221   0.222   0.223   0.229   0.231   0.234
222 A   223 A   224 A   225 A   226 A   227 A   228 A   229 A                  
  0.237   0.238   0.240   0.242   0.246   0.249   0.251   0.256
230 A   231 A   232 A   233 A   234 A   235 A   236 A   237 A                  
  0.258   0.267   0.269   0.271   0.273   0.274   0.281   0.281
238 A   239 A   240 A   241 A   242 A   243 A   244 A   245 A                  
  0.284   0.288   0.291   0.296   0.297   0.300   0.307   0.312
246 A   247 A   248 A   249 A   250 A   251 A   252 A   253 A                  
  0.317   0.319   0.325   0.329   0.331   0.334   0.339   0.340
254 A   255 A   256 A   257 A   258 A   259 A   260 A   261 A                  
  0.348   0.353   0.356   0.365   0.367   0.372   0.378   0.379
262 A   263 A   264 A   265 A   266 A   267 A   268 A   269 A                  
  0.384   0.388   0.395   0.397   0.400   0.403   0.407   0.419
270 A   271 A   272 A   273 A   274 A   275 A   276 A   277 A                  
  0.420   0.429   0.430   0.439   0.440   0.448   0.451   0.456
278 A   279 A   280 A   281 A   282 A   283 A   284 A   285 A                  
  0.459   0.464   0.466   0.468   0.474   0.478   0.481   0.484
286 A   287 A   288 A   289 A   290 A   291 A   292 A   293 A                  
  0.485   0.489   0.494   0.500   0.502   0.514   0.516   0.521
294 A   295 A   296 A   297 A   298 A   299 A   300 A   301 A                  
  0.524   0.528   0.536   0.540   0.547   0.551   0.555   0.561
302 A   303 A   304 A   305 A   306 A   307 A   308 A   309 A                  
  0.566   0.568   0.573   0.577   0.580   0.588   0.592   0.596
310 A   311 A   312 A   313 A   314 A   315 A   316 A   317 A                  
  0.609   0.619   0.622   0.627   0.628   0.634   0.643   0.648
318 A   319 A   320 A   321 A   322 A   323 A   324 A   325 A                  
  0.658   0.660   0.667   0.671   0.674   0.678   0.682   0.687
326 A   327 A   328 A   329 A   330 A   331 A   332 A   333 A                  
  0.692   0.699   0.707   0.709   0.715   0.717   0.724   0.726
334 A   335 A   336 A   337 A   338 A   339 A   340 A   341 A                  
  0.732   0.743   0.748   0.750   0.755   0.759   0.762   0.769
342 A   343 A   344 A   345 A   346 A   347 A   348 A   349 A                  
  0.773   0.785   0.793   0.800   0.802   0.810   0.819   0.822
350 A   351 A   352 A   353 A   354 A   355 A   356 A   357 A                  
  0.827   0.828   0.836   0.841   0.845   0.852   0.861   0.877
358 A   359 A   360 A   361 A   362 A   363 A   364 A   365 A                  
  0.881   0.887   0.892   0.899   0.901   0.908   0.914   0.936
366 A   367 A   368 A   369 A   370 A   371 A   372 A   373 A                  
  0.941   0.945   0.955   0.961   0.967   0.981   0.985   1.000
374 A   375 A   376 A   377 A   378 A   379 A   380 A   381 A                  
  1.004   1.006   1.019   1.024   1.043   1.057   1.066   1.074
382 A   383 A   384 A   385 A   386 A   387 A   388 A   389 A                  
  1.085   1.096   1.106   1.111   1.119   1.134   1.144   1.155
390 A   391 A   392 A   393 A   394 A   395 A   396 A   397 A                  
  1.158   1.165   1.170   1.186   1.193   1.205   1.212   1.231
398 A   399 A   400 A   401 A   402 A   403 A   404 A   405 A                  
  1.248   1.254   1.264   1.279   1.283   1.290   1.297   1.317
406 A   407 A   408 A   409 A   410 A   411 A   412 A   413 A                  
  1.341   1.347   1.353   1.363   1.377   1.390   1.401   1.409
414 A   415 A   416 A   417 A   418 A   419 A   420 A   421 A                  
  1.417   1.435   1.440   1.455   1.465   1.479   1.489   1.502
422 A   423 A   424 A   425 A   426 A   427 A   428 A   429 A                  
  1.506   1.519   1.532   1.546   1.550   1.570   1.586   1.607
430 A   431 A   432 A   433 A   434 A   435 A   436 A   437 A                  
  1.612   1.616   1.651   1.663   1.669   1.676   1.678   1.683
438 A   439 A   440 A   441 A   442 A   443 A   444 A   445 A                  
  1.698   1.705   1.713   1.726   1.731   1.742   1.748   1.760
446 A   447 A   448 A   449 A   450 A   451 A   452 A   453 A                  
  1.766   1.778   1.785   1.790   1.801   1.809   1.819   1.831
454 A   455 A   456 A   457 A   458 A   459 A   460 A   461 A                  
  1.848   1.860   1.874   1.889   1.896   1.902   1.925   1.932
462 A   463 A   464 A   465 A   466 A   467 A   468 A   469 A                  
  1.938   1.946   1.949   1.951   1.957   1.972   1.980   1.994
470 A   471 A   472 A   473 A   474 A   475 A   476 A   477 A                  
  2.008   2.021   2.041   2.052   2.064   2.080   2.085   2.101
478 A   479 A   480 A   481 A   482 A   483 A   484 A   485 A                  
  2.111   2.119   2.142   2.152   2.155   2.164   2.174   2.181
486 A   487 A   488 A   489 A   490 A   491 A   492 A   493 A                  
  2.207   2.210   2.216   2.224   2.253   2.258   2.262   2.278
494 A   495 A   496 A   497 A   498 A   499 A   500 A   501 A                  
  2.281   2.288   2.297   2.309   2.317   2.330   2.340   2.357
502 A   503 A   504 A   505 A   506 A   507 A   508 A   509 A                  
  2.374   2.379   2.385   2.401   2.413   2.433   2.440   2.449
510 A   511 A   512 A   513 A   514 A   515 A   516 A   517 A                  
  2.496   2.496   2.505   2.513   2.527   2.541   2.547   2.571
518 A   519 A   520 A   521 A   522 A   523 A   524 A   525 A                  
  2.587   2.592   2.635   2.652   2.668   2.678   2.701   2.724
526 A   527 A   528 A   529 A   530 A   531 A   532 A   533 A                  
  2.733   2.748   2.752   2.786   2.797   2.823   2.829   2.861
534 A   535 A   536 A   537 A   538 A   539 A   540 A   541 A                  
  2.885   2.930   2.934   2.963   2.977   2.984   3.032   3.042
542 A   543 A   544 A   545 A   546 A   547 A   548 A   549 A                  
  3.049   3.087   3.091   3.145   3.161   3.208   3.252   3.342
550 A   551 A   552 A   553 A   554 A   555 A   556 A   557 A                  
  3.374   3.395   3.429   3.494   3.495   3.582   3.652   3.724
558 A   559 A   560 A   561 A   562 A   563 A   564 A   565 A                  
  3.770   3.808   3.809   3.820   3.840   3.864   3.868   3.882
566 A   567 A   568 A   569 A   570 A   571 A   572 A   573 A                  
  3.899   3.926   3.939   3.958   3.991   4.016   4.038   4.072
574 A   575 A   576 A   577 A   578 A   579 A   580 A   581 A                  
  4.096   4.108   4.159   4.178   4.183   4.226   4.253   4.286
582 A   583 A   584 A   585 A   586 A   587 A   588 A   589 A                  
  4.309   4.559   4.887
590 A   591 A   592 A                                                          

 Occupation and symmetry of molecular orbitals

 Point group: C1 (1 irreducible representation).

                           A     All 
 -------------------------------------
 All molecular orbitals:
  - Alpha                  592   592 
  - Beta                   592   592 
 -------------------------------------
 Alpha orbitals:
  - Frozen occupied        14    14  
  - Active occupied        39    39  
  - Active virtual         539   539 
  - Frozen virtual         0     0   
 -------------------------------------
 Beta orbitals:
  - Frozen occupied        14    14  
  - Active occupied        39    39  
  - Active virtual         539   539 
  - Frozen virtual         0     0   
 -------------------------------------

 Import integrals:   CPU 0.00 s  wall 0.00 s

 Import integrals:   CPU 1137.09 s  wall 34.26 s


 MP2  CPU 643.35 s  wall 24.92 s
Running a double precision version
           RI-CC2 T amplitudes will be solved using DIIS.

           Start     Size      MaxIter   EConv     TConv     
           3         7         100       1.00e-08  1.00e-07  
 ------------------------------------------------------------------------------
           Energy (a.u.)   Ediff      Tdiff       Comment
 ------------------------------------------------------------------------------
        -724.3792252931                           
     1  -724.3773616521   1.86e-03   1.54e+00     
     2  -724.4078165262   3.05e-02   7.24e-02     
     3  -724.4102596545   2.44e-03   4.97e-02     
     4  -724.4152910010   5.03e-03   1.73e-02     Switched to DIIS steps.
     5  -724.4186297962   3.34e-03   2.00e-02     
     6  -724.4190524438   4.23e-04   3.82e-03     
     7  -724.4190986320   4.62e-05   2.92e-03     
     8  -724.4190970524   1.58e-06   1.00e-03     
     9  -724.4191184608   2.14e-05   5.76e-04     
    10  -724.4191306479   1.22e-05   2.93e-04     
    11  -724.4191314256   7.78e-07   1.72e-04     
    12  -724.4191349862   3.56e-06   1.62e-04     
    13  -724.4191324803   2.51e-06   6.25e-05     
    14  -724.4191317193   7.61e-07   2.98e-05     
    15  -724.4191309677   7.52e-07   1.70e-05     
    16  -724.4191304173   5.50e-07   9.91e-06     
    17  -724.4191302277   1.90e-07   7.93e-06     
    18  -724.4191301065   1.21e-07   4.17e-06     
    19  -724.4191300533   5.32e-08   2.63e-06     
    20  -724.4191300594   6.05e-09   1.58e-06     
    21  -724.4191300561   3.31e-09   7.24e-07     
    22  -724.4191300560   7.41e-11   6.28e-07     
    23  -724.4191300587   2.72e-09   3.71e-07     
    24  -724.4191300560   2.71e-09   2.53e-07     
    25  -724.4191300543   1.73e-09   1.49e-07     
    26  -724.4191300544   9.08e-11   9.11e-08     
 ------------------------------------------------------------------------------
        -724.4191300544                           CC2 T converged.

End of double precision
 SCF energy                 = -722.13348552
 MP2 energy                 = -724.37922529
 CC2 correlation energy    =   -2.28564454
 CC2 total energy          = -724.41913005

 CC2  T1^2 = 0.0653  T2^2 = 0.7785  Leading amplitudes:

 Amplitude    Orbitals with energies
  0.0657       45 (A) A                  ->    54 (A) A                   
              -0.5419                         -0.0120                     
  0.0657       45 (A) B                  ->    54 (A) B                   
              -0.5419                         -0.0120                     
 -0.0328       44 (A) A                  ->    54 (A) A                   
              -0.5502                         -0.0120                     
 -0.0328       44 (A) B                  ->    54 (A) B                   
              -0.5502                         -0.0120                     

 Amplitude    Orbitals with energies
 -0.0679       52 (A) A      52 (A) B    ->    54 (A) A      54 (A) B     
              -0.4110       -0.4110           -0.0120       -0.0120       
  0.0679       52 (A) A      52 (A) B    ->    54 (A) B      54 (A) A     
              -0.4110       -0.4110           -0.0120       -0.0120       
  0.0679       52 (A) B      52 (A) A    ->    54 (A) A      54 (A) B     
              -0.4110       -0.4110           -0.0120       -0.0120       
 -0.0679       52 (A) B      52 (A) A    ->    54 (A) B      54 (A) A     
              -0.4110       -0.4110           -0.0120       -0.0120       

 Computing CC2 intermediates for later calculations in double precision
 Finished.


 CC2  CPU 34794.14 s  wall 1134.21 s
        Solving for EOMEA-CC2/MP2 A transitions.

Running a double precision version
      RI-EOMEA-CC2/MP2 right amplitudes will be solved using Davidson.
        Amplitudes will be solved using standard  algorithm.
     Hard-coded thresholds: 
     LinDepThresh=1.00e-15  NormThresh=1.00e-06  ReorthogonThresh=1.00e-02

      Roots     MaxVec    MaxIter   Precond   Conv      Shift    
      2         120       60        1         1.00e-08  0.00e+00  
 ------------------------------------------------------------------------------
      Iter ConvRoots NVecs ResNorm^2 Current eigenvalues (eV)
 ------------------------------------------------------------------------------
      0    0      2     1.25e-04   0.0165   0.0314   
      1    0      4     7.75e-05   0.0133   0.0302   
      2    0      6     7.87e-05   0.0069   0.0292   
      3    0      8     3.78e-05   0.0012   0.0283   
      4    0      10    1.27e-02   -0.2832   -0.0012   
      5    0      12    5.00e-03   -1.9188   -0.0034   
      6    0      14    6.58e-04   -2.2138   -0.0039   
      7    0      16    1.31e-04   -2.2412   -0.0040   
      8    0      18    1.32e-05   -2.2467   -0.0040   
      9    0      20    3.28e-06   -2.2474   -0.0040   
      10   0      22    9.92e-07   -2.2476   -0.0040   
      11   0      24    1.92e-07   -2.2477   -0.0040   
      12   0      26    2.11e-08   -2.2478   -0.0040   
      13   2      28    4.53e-09   -2.2477*  -0.0040*  

     Davidson procedure converged

 EOMEA transition 1/A
 Total energy = -724.50173267 a.u.  Excitation energy = -2.2477 eV.
 R1^2 = 0.9057  R2^2 = 0.0943  Res^2 = 4.32e-09
 Conv-d = yes

 Amplitude    Transitions between orbitals
 -0.9476       infty       ->    54 (A) B                   
  0.0231       infty       ->    198 (A) B                  
  0.0172       infty       ->    202 (A) B                  
  0.0169       infty       ->    241 (A) B                  

              Summary of significant orbitals:

               Number  Type             Irrep      Energy
               54      Vir  Beta       54 (A)     -0.0120
               198     Vir  Beta      198 (A)      0.1542
               202     Vir  Beta      202 (A)      0.1659
               241     Vir  Beta      241 (A)      0.2707


 EOMEA transition 2/A
 Total energy = -724.41927852 a.u.  Excitation energy = -0.0040 eV.
 R1^2 = 0.9959  R2^2 = 0.0041  Res^2 = 4.75e-09
 Conv-d = yes

 Amplitude    Transitions between orbitals
  0.8218       infty       ->    55 (A) B                   
  0.3077       infty       ->    61 (A) B                   
 -0.2614       infty       ->    60 (A) B                   
  0.1825       infty       ->    68 (A) B                   
 -0.1315       infty       ->    81 (A) B                   
  0.1232       infty       ->    69 (A) B                   

              Summary of significant orbitals:

               Number  Type             Irrep      Energy
               55      Vir  Beta       55 (A)      0.0006
               60      Vir  Beta       60 (A)      0.0024
               61      Vir  Beta       61 (A)      0.0026
               68      Vir  Beta       68 (A)      0.0060
               69      Vir  Beta       69 (A)      0.0064
               81      Vir  Beta       81 (A)      0.0131


Running a double precision version
      RI-EOMEA-CC2/MP2 left amplitudes will be solved using Davidson.
        Amplitudes will be solved using MOM  algorithm.
     Hard-coded thresholds: 
     LinDepThresh=1.00e-15  NormThresh=1.00e-06  ReorthogonThresh=1.00e-02

      Roots     MaxVec    MaxIter   Precond   Conv      Shift    
      2         120       60        1         1.00e-08  0.00e+00  
 ------------------------------------------------------------------------------
      Iter ConvRoots NVecs ResNorm^2 Current eigenvalues (eV)
 ------------------------------------------------------------------------------
      0    0      2     5.27e-03   -2.2477   -0.0040   
      1    0      4     2.18e-03   -2.2477   -0.0040   
      2    0      6     4.60e-05   -2.2477   -0.0040   
      3    0      8     7.60e-06   -2.2477   -0.0040   
      4    0      10    9.59e-07   -2.2477   -0.0040   
      5    1      12    2.00e-07   -2.2477   -0.0040*  
      6    1      13    5.81e-08   -2.2477   -0.0040*  
      7    1      14    1.67e-08   -2.2477   -0.0040*  
      8    2      15    5.71e-09   -2.2477*  -0.0040*  

     Davidson procedure converged

 Excited state properties for  EOMEA-CC2 transition 1/A
 Dipole moment (a.u.): 1.226912 (X -0.148076, Y -1.169903, Z 0.338695)
 R-squared (a.u.): 2921.838925 (XX 1530.102855, YY 1139.619889, ZZ 252.116181)
 Gauge origin (a.u.): (0.000000, 0.000000, 0.000000)
 Angular momentum (a.u.) against gauge origin: 
 (X -0.071554i, Y -0.060029i, Z -0.088751i)
 Traces of the OPDMs: Tr(AA) 53.000000, Tr(BB) 54.000000

 Excited state properties for  EOMEA-CC2 transition 2/A
 Dipole moment (a.u.): 4.900753 (X 2.536208, Y -3.102780, Z -2.820955)
 R-squared (a.u.): 3883.718141 (XX 1815.571609, YY 1493.385288, ZZ 574.761244)
 Gauge origin (a.u.): (0.000000, 0.000000, 0.000000)
 Angular momentum (a.u.) against gauge origin: 
 (X -0.060353i, Y -0.054417i, Z -0.078765i)
 Traces of the OPDMs: Tr(AA) 53.000000, Tr(BB) 54.000000


 EOMEA-CC2  CPU 8439.91 s  wall 392.80 s

 Start computing the transition properties

 ------------------------------------------------------------------------------
 State A: eomea_cc2/b: 1/A
 State B: cc2: 0/A

       ***    Dyson orbital calculation   *** 

 EOM-EA-CC2 state  1/A -- Reference  transition
 Energy difference = -2.2477 eV.

 Left Dyson orbital norm is 0.9585

Left beta Dyson orbital in the MO basis (canonical Q-Chem's ordering):
0  9.2172e-17  
1  -4.9616e-17 
2  -1.4288e-16 
3  1.5810e-15  
4  -3.0564e-16 
5  -4.3761e-16 
6  -2.8308e-16 
7  3.1895e-16  
8  2.5539e-16  
9  -1.7218e-16 
10 -3.2533e-17 
11 2.5348e-16  
12 -5.0009e-18 
13 2.4591e-17  
14 4.0454e-04  
15 1.1376e-03  
16 -8.0219e-04 
17 -1.3090e-03 
18 -8.7596e-05 
19 -5.4818e-04 
20 -5.1909e-04 
21 -4.7372e-04 
22 1.4912e-03  
23 -8.5129e-04 
24 -2.6621e-03 
25 -2.6918e-03 
26 -4.6973e-04 
27 2.8362e-03  
28 6.8836e-03  
29 6.8404e-03  
30 -9.1259e-03 
31 -2.2953e-02 
32 1.7006e-03  
33 -1.5897e-03 
34 1.5238e-02  
35 -3.2820e-02 
36 2.9944e-02  
37 1.1491e-02  
38 1.0475e-03  
39 -9.5344e-03 
40 4.1164e-03  
41 -5.7902e-03 
42 2.4298e-02  
43 -3.6457e-02 
44 7.3606e-02  
45 -3.3884e-03 
46 3.5431e-03  
47 -8.8664e-03 
48 1.4273e-02  
49 1.1919e-02  
50 -1.8397e-02 
51 8.2866e-03  
52 1.1324e-02  
53 -9.9042e-01 
54 -1.3815e-03 
55 -3.4431e-03 
56 -4.7242e-03 
57 3.5946e-03  
58 1.0968e-04  
59 3.3978e-04  
60 -2.5290e-03 
61 3.6452e-03  
62 -6.7335e-03 
63 -3.8291e-03 
64 -9.6146e-03 
65 -8.7585e-03 
66 2.8405e-03  
67 -5.1062e-03 
68 5.4313e-04  
69 -4.5902e-03 
70 -7.9316e-03 
71 8.8192e-03  
72 -1.0463e-02 
73 -7.2913e-03 
74 -6.6911e-03 
75 -9.1723e-03 
76 5.0581e-03  
77 -8.4803e-03 
78 -2.2573e-03 
79 -5.2506e-04 
80 4.4142e-03  
81 5.4913e-03  
82 -5.8065e-03 
83 -2.5095e-03 
84 1.0018e-02  
85 -1.6038e-03 
86 -6.4809e-03 
87 -1.1220e-02 
88 1.2062e-02  
89 3.2814e-03  
90 -6.3956e-03 
91 -3.2963e-04 
92 4.2326e-03  
93 6.0472e-03  
94 8.4987e-03  
95 3.4190e-03  
96 -5.4546e-03 
97 3.5947e-03  
98 7.4241e-04  
99 2.0330e-03  
100-2.4774e-03 
101-4.0381e-03 
1025.4416e-03  
103-2.9233e-03 
104-6.5549e-04 
105-2.4252e-03 
106-1.1811e-02 
107-2.0895e-03 
1082.1454e-03  
109-7.6955e-03 
110-6.2084e-03 
1117.6168e-03  
1123.6996e-03  
113-1.8974e-03 
114-5.5517e-03 
115-4.5808e-05 
116-5.9463e-03 
1172.9200e-03  
1186.1794e-03  
1199.5636e-03  
1202.6982e-03  
121-2.1972e-03 
122-7.9302e-04 
123-6.2911e-04 
124-6.7867e-04 
125-4.7887e-03 
126-1.3340e-03 
1272.4545e-03  
128-8.5187e-03 
1292.9852e-03  
1301.0195e-03  
1317.5337e-03  
1323.7338e-03  
133-1.6718e-03 
134-1.2108e-03 
135-3.2155e-03 
136-3.6916e-04 
137-4.3655e-03 
138-3.3665e-04 
139-2.2511e-04 
140-7.7335e-03 
141-4.1171e-03 
1421.9684e-03  
143-4.0744e-03 
144-3.7448e-03 
1451.7640e-03  
1466.2547e-04  
1471.0703e-03  
148-1.7183e-03 
149-2.2617e-03 
150-4.8329e-03 
151-4.0134e-03 
1521.6537e-03  
153-6.2159e-03 
154-7.4152e-05 
155-2.0954e-04 
156-7.2632e-03 
157-2.7487e-03 
1583.2130e-03  
1591.1442e-03  
1607.0954e-04  
161-2.2762e-03 
1625.6440e-03  
163-2.6912e-03 
164-5.2614e-04 
1654.0866e-03  
166-1.6541e-03 
1672.6053e-03  
168-2.0764e-03 
169-1.0625e-03 
170-8.6135e-04 
171-4.6804e-04 
172-4.2555e-03 
1733.7338e-04  
174-3.0556e-03 
175-5.5059e-03 
176-2.0699e-04 
1774.8180e-04  
178-4.7236e-03 
179-3.2489e-03 
180-4.7554e-04 
181-5.0092e-03 
1822.2944e-03  
183-5.6814e-03 
1843.4668e-03  
185-1.3000e-03 
186-7.8235e-03 
1871.7422e-03  
188-3.7011e-03 
1892.9819e-03  
190-6.5786e-03 
191-1.3962e-03 
192-1.1113e-02 
1931.1933e-03  
1942.8218e-03  
195-8.6754e-03 
1962.6226e-03  
1972.5526e-02  
198-8.2025e-04 
1991.0314e-02  
200-7.0174e-03 
2011.8172e-02  
202-1.7251e-03 
2036.4864e-03  
204-2.8918e-03 
205-2.1781e-04 
206-6.9613e-04 
2072.7677e-03  
208-4.4441e-03 
2092.2386e-04  
2107.4072e-04  
2114.3799e-04  
2122.0053e-03  
2132.7802e-03  
214-5.0016e-03 
2152.1116e-03  
216-6.1077e-03 
217-2.9877e-04 
2188.0571e-04  
219-4.4594e-03 
2203.4759e-03  
2211.1919e-02  
2223.4365e-03  
2232.0355e-04  
224-1.6033e-03 
2251.9533e-03  
2269.1058e-04  
227-2.2927e-04 
2282.2563e-03  
229-3.7237e-04 
2304.3861e-03  
2315.8021e-03  
2327.7673e-03  
233-9.9334e-03 
234-3.5009e-03 
235-6.2684e-03 
236-2.0750e-03 
237-1.3322e-02 
2381.7326e-03  
239-2.4941e-03 
2401.6644e-02  
2415.1319e-03  
2424.4200e-03  
2438.6656e-03  
244-7.9677e-04 
2454.5437e-03  
2461.2260e-02  
2472.8873e-03  
248-5.0690e-03 
2491.8406e-03  
2506.4014e-03  
251-8.9397e-04 
252-2.7441e-03 
253-6.1114e-03 
2541.1705e-02  
2551.4082e-03  
256-4.5174e-03 
2572.9731e-03  
258-4.7803e-03 
259-5.3965e-03 
2601.4299e-02  
261-6.5010e-03 
2626.2308e-03  
263-5.3488e-03 
2646.5881e-03  
2655.2172e-04  
266-4.2199e-03 
2673.5442e-03  
268-1.2555e-03 
2697.1194e-03  
2702.2698e-03  
271-2.0382e-03 
272-7.3635e-04 
273-2.1187e-03 
2744.7029e-05  
275-4.8570e-04 
2761.0439e-03  
277-3.2049e-04 
278-1.9048e-03 
279-2.4155e-03 
280-4.5575e-03 
281-8.5342e-04 
2822.8285e-03  
2833.9094e-03  
2843.1494e-03  
2851.3713e-03  
2863.3918e-03  
2872.3260e-03  
2882.5974e-03  
2893.3910e-03  
290-4.8107e-03 
2911.0359e-03  
292-2.0758e-03 
293-1.0596e-03 
2943.5084e-03  
295-2.6253e-03 
2961.7061e-03  
297-2.6765e-04 
298-3.3105e-03 
299-2.0796e-03 
3001.7094e-03  
3014.4328e-05  
3021.1100e-03  
303-6.1100e-04 
304-4.8975e-04 
305-3.5607e-03 
306-7.8126e-04 
3072.1441e-03  
3082.3522e-03  
309-2.7606e-03 
310-1.9239e-03 
3112.4318e-03  
3123.4785e-03  
313-1.9620e-04 
3146.6155e-04  
315-1.8983e-03 
3163.0411e-03  
317-8.7119e-04 
3181.4021e-03  
3192.1119e-04  
320-6.6937e-04 
321-6.7168e-04 
3227.9696e-04  
323-1.2458e-04 
324-9.0583e-04 
3251.7256e-03  
326-2.4545e-03 
327-8.7017e-04 
3287.6560e-04  
3292.7937e-03  
3308.2464e-04  
3313.3275e-03  
3321.3442e-03  
3336.8775e-04  
334-2.6911e-03 
3351.5615e-03  
336-6.9093e-04 
337-1.4740e-03 
338-5.0257e-04 
339-4.8422e-03 
3406.0928e-04  
341-5.6850e-04 
3421.1869e-03  
3433.3175e-03  
344-3.4887e-04 
3458.2513e-04  
3461.2442e-03  
347-1.5106e-03 
348-1.4225e-03 
349-3.7430e-04 
3502.6301e-03  
351-1.1293e-03 
352-1.1894e-03 
353-2.8984e-04 
354-6.5248e-04 
3559.6097e-04  
3561.7134e-03  
357-1.5291e-03 
358-1.5603e-04 
3591.7126e-03  
360-1.0403e-03 
361-1.1842e-03 
362-3.7274e-04 
363-1.0512e-03 
364-1.6501e-03 
3651.7181e-03  
3663.2931e-03  
367-3.2715e-03 
3682.8793e-03  
3692.4417e-03  
370-3.3825e-04 
371-3.0790e-03 
3721.8938e-03  
3731.6340e-03  
3745.6619e-03  
3751.8228e-03  
3763.1745e-03  
377-3.9222e-03 
378-4.0867e-03 
379-1.0328e-02 
3802.3612e-03  
3811.7335e-03  
3822.7011e-03  
383-6.7433e-03 
3847.3162e-03  
385-2.5792e-03 
386-3.5810e-03 
3878.9611e-04  
388-7.0643e-04 
389-3.6416e-03 
390-1.5341e-03 
3911.1446e-03  
392-5.2837e-04 
3938.2008e-04  
394-1.3283e-04 
3954.2577e-03  
3965.9013e-04  
3974.9343e-04  
398-3.0901e-04 
399-2.5518e-03 
400-1.3166e-03 
4012.7550e-04  
402-8.3581e-04 
4039.8981e-04  
4041.8063e-04  
405-9.6490e-04 
406-2.1609e-04 
4071.6888e-03  
4081.0024e-03  
409-6.3993e-05 
410-2.2230e-03 
411-5.9716e-04 
4122.4307e-03  
413-1.9309e-03 
414-2.8016e-05 
415-1.4200e-03 
4163.3149e-04  
4171.5519e-03  
4189.4302e-04  
4192.0681e-04  
420-7.6482e-04 
4213.9907e-05  
422-5.8266e-04 
4231.8534e-03  
424-7.1162e-04 
425-6.2309e-04 
4264.2022e-05  
4274.3025e-04  
4282.9190e-04  
4291.4234e-04  
430-4.6468e-04 
4311.3643e-04  
4324.1943e-04  
433-5.8111e-04 
4348.4758e-04  
435-8.1548e-04 
436-5.5215e-04 
437-2.8098e-04 
4386.3088e-04  
439-7.0540e-04 
4405.2801e-04  
4411.3130e-04  
442-4.3104e-04 
4435.0430e-04  
4442.4774e-04  
445-1.0733e-03 
4461.2288e-03  
447-1.1118e-04 
448-6.4563e-05 
4493.5256e-04  
450-3.4537e-04 
451-1.9739e-03 
4521.2966e-03  
4532.4715e-03  
4549.6338e-04  
455-4.4570e-05 
4561.2465e-03  
457-9.5030e-04 
458-5.0697e-04 
459-1.8893e-03 
4602.5086e-04  
461-1.2240e-03 
462-2.6538e-04 
4636.2454e-04  
4641.2508e-03  
465-7.2672e-04 
4663.2476e-04  
467-6.6640e-04 
468-2.3090e-04 
4691.1761e-03  
4701.1652e-04  
4711.4269e-03  
472-1.3776e-03 
473-1.5142e-03 
4742.0884e-03  
475-8.4383e-06 
4762.8062e-04  
4774.0743e-04  
478-7.6107e-05 
4793.3451e-04  
4801.6543e-03  
481-1.6675e-03 
482-7.7332e-04 
4831.7805e-04  
484-2.8185e-04 
4851.1261e-03  
4867.2781e-04  
487-7.5418e-04 
488-4.2569e-04 
489-8.7386e-04 
4905.6323e-04  
4916.5207e-04  
492-1.3225e-03 
493-3.8733e-04 
4941.3043e-03  
495-4.2237e-04 
4961.2059e-04  
4973.1705e-04  
4983.9922e-04  
499-5.0637e-04 
500-1.0992e-03 
501-1.0788e-04 
5022.0304e-04  
503-2.5440e-04 
504-5.6766e-04 
505-7.1735e-04 
5061.1509e-04  
507-8.0644e-04 
5086.1808e-05  
509-1.1425e-04 
5104.1668e-04  
5112.2075e-04  
512-7.7222e-04 
513-4.4893e-04 
514-2.1814e-04 
5153.6761e-05  
516-6.4312e-06 
5174.0554e-04  
5182.8660e-04  
519-3.8885e-04 
520-1.1623e-05 
521-2.9336e-05 
522-2.0012e-04 
5231.1460e-04  
524-1.9240e-04 
525-7.9615e-05 
5261.3387e-04  
527-2.6118e-05 
5286.8710e-05  
529-4.4445e-04 
5303.6832e-04  
5312.1231e-04  
532-1.4671e-04 
533-9.2307e-05 
534-2.5822e-04 
5351.8803e-04  
5362.9397e-04  
537-3.9434e-04 
538-4.1585e-04 
5397.0419e-05  
540-1.3815e-04 
5411.8155e-04  
542-7.1974e-05 
5431.9691e-04  
5441.4163e-04  
545-1.7767e-04 
5469.4362e-05  
547-2.1197e-04 
548-2.5309e-04 
549-2.7898e-04 
550-1.1126e-04 
551-5.3635e-05 
5521.7515e-05  
553-6.3610e-05 
5541.1778e-04  
555-1.8112e-04 
556-8.9374e-05 
5573.2741e-04  
558-1.5152e-04 
5591.0735e-05  
5601.3071e-05  
561-1.3716e-05 
562-1.1704e-05 
5632.3666e-04  
5641.7630e-04  
5658.3379e-05  
5665.0797e-05  
5679.2494e-05  
568-4.6672e-05 
569-1.5786e-04 
5701.2405e-04  
571-3.4491e-05 
5722.7866e-06  
573-5.5647e-05 
574-1.1754e-04 
575-4.3595e-05 
5761.0312e-04  
577-1.5537e-04 
578-6.2661e-05 
579-3.1559e-05 
5802.8999e-04  
581-3.1968e-05 
5821.6990e-05  
5836.1744e-05  
584-3.5826e-05 
585-5.5357e-05 
5861.2785e-04  
587-2.8485e-05 
588-4.2540e-05 
5891.4281e-04  
590-1.7319e-04 
5911.1688e-04  

Decomposition over AOs for the left beta Dyson orbital:
-5.16505267e-04
6.46749922e-05
-2.53731855e-02
1.02134188e-01
-6.21265949e-02
-1.79295298e-01
1.15901680e-01
-4.80930180e-02
5.88185016e-02
-9.51480845e-02
3.46252246e-03
-3.04832300e-02
1.95457710e-01
-4.67400787e-02
-5.05682234e-03
9.93456819e-03
-7.04762552e-03
-7.18295608e-02
1.13191861e-01
-2.16894555e-01
-9.76996444e-02
-1.56158661e-01
1.44427941e-01
5.45564123e-02
1.75536064e-02
-1.31343956e-01
2.17445465e-01
1.02398018e-01
5.02850238e-03
7.09362251e-03
-9.30741075e-05
-2.41129040e-02
5.66480023e-03
-1.02619737e-02
3.88235177e-04
6.59221495e-04
-7.63452272e-03
-2.49448874e-02
-5.84128818e-04
-1.72235126e-02
-6.06766028e-02
-2.28292153e-01
1.42469918e-01
-2.15496808e-01
1.21538830e-01
-6.01314391e-02
-6.30889998e-02
-6.58714946e-03
-7.40690151e-02
-7.55077818e-02
4.05625324e-01
-4.94620896e-02
-6.80077286e-02
8.41213462e-02
-4.23643474e-02
-5.66810889e-02
1.20223506e-01
-9.63506131e-02
-7.48222994e-02
-2.52475396e-01
-2.07458759e-01
-1.07701860e-01
2.55484688e-01
1.02929119e-01
-5.45784705e-02
1.68194184e-01
-6.07081355e-03
1.53905270e-02
1.48353691e-02
2.82619930e-02
-7.68123530e-04
-5.19430557e-03
2.75973711e-03
2.64620615e-02
1.33633229e-02
1.47673957e-03
-5.41562217e-04
-1.50354235e-04
7.94732261e-03
1.06096805e-02
8.77417048e-02
-1.35840501e-01
7.83746389e-02
-5.20043669e-04
1.12255068e-02
-1.33182718e-01
-1.22202450e-02
-4.02565983e-02
2.35755275e-01
-3.24299376e-02
-5.58683643e-02
3.04596186e-02
1.18524292e-01
-1.57218851e-01
9.20864478e-02
1.59036404e-01
-6.71629401e-02
-1.72333158e-02
8.71369480e-02
3.57407620e-01
4.61474838e-02
4.45230684e-03
-1.02578979e-01
-8.29957354e-02
5.81033937e-03
-2.18558702e-02
-7.75810553e-03
-1.00337476e-02
-3.65989599e-03
-2.03549800e-02
9.89964370e-03
-1.49264285e-03
-1.04625896e-02
-1.02612382e-02
-5.27095104e-05
5.04118767e-03
2.55527399e-02
1.64749504e-01
1.34091193e-01
-2.03126676e-02
-8.64374950e-03
5.19544902e-02
2.67203228e-02
-1.47832421e-01
1.92152544e-02
4.56823307e-02
-2.93740507e-01
-5.21397580e-02
9.57393411e-03
-4.19018093e-02
3.09769501e-02
1.72133897e-02
-1.23758331e-01
3.19909654e-02
6.09896082e-02
-4.43773453e-03
-2.10445566e-02
-1.16734605e-01
7.42896364e-02
-1.41432954e-01
1.09654669e-01
4.38728606e-02
3.37671866e-03
3.84453592e-04
-1.97988041e-03
-1.78126361e-02
2.41073183e-03
1.04378543e-02
-6.17492307e-03
1.07994854e-03
1.23484397e-02
-2.16363058e-03
-2.58627651e-04
-4.68272852e-03
1.27914878e-02
-1.74833533e-01
1.83580907e-02
3.96445819e-02
-9.57434295e-02
9.93541305e-02
-3.54584653e-02
1.66459429e-01
3.18127596e-02
6.07060684e-02
-2.60851768e-01
-2.30347978e-02
3.69252694e-02
-3.85404798e-02
9.55273890e-02
-6.15054873e-02
-4.99392817e-02
-1.95241550e-01
-9.75797023e-02
1.99869417e-01
-8.88263666e-02
4.63391753e-02
-3.13346121e-01
1.37071955e-01
-3.10106045e-02
3.36223438e-02
-6.84647129e-03
1.45928879e-02
1.10129062e-02
3.06455061e-02
1.86356512e-04
-1.77391059e-02
4.92888170e-03
7.14443649e-03
3.28226268e-02
6.42120639e-03
-4.68155419e-05
1.48718146e-02
8.22533092e-02
1.07278116e-01
-7.86122363e-02
-3.16728757e-02
2.16476048e-02
5.39158486e-02
9.22854953e-04
4.04319584e-02
1.32938143e-02
2.94525272e-02
-2.64990494e-01
-3.89622803e-02
4.63389227e-03
-3.66012807e-02
3.33948861e-02
-1.04193547e-02
-1.57803292e-01
2.71118174e-01
9.64814072e-02
4.67979143e-02
2.15235945e-01
1.46040720e-01
-9.63583582e-02
2.27550878e-02
-5.58469091e-02
-2.04766162e-01
3.98321020e-03
-1.56010071e-02
-4.57585865e-03
-4.19908666e-03
-1.13418457e-03
2.49593315e-02
3.76848547e-03
-2.65557627e-03
-8.61503192e-03
-1.36875266e-02
1.28183703e-03
1.62568214e-02
-9.87442707e-03
3.44657201e-02
4.64676352e-02
6.74077255e-03
3.71418447e-02
-6.22262970e-02
-4.59080126e-02
3.71991263e-03
6.33747707e-02
7.30156043e-02
-4.10319850e-01
8.93014161e-03
1.19838317e-02
-6.06189625e-02
5.06032079e-02
4.54731204e-02
-1.75673511e-01
-4.06659924e-02
-4.40851009e-02
1.27946678e-01
3.28046689e-02
8.90994978e-02
2.09508032e-02
9.08456526e-02
-4.14089928e-02
-2.65593885e-01
-9.90685566e-04
1.58768006e-03
3.23180072e-04
2.42717299e-03
-1.18029154e-04
-1.55251496e-04
2.18137266e-03
-5.30732938e-03
1.61849667e-04
-1.60236550e-04
-1.98950801e-05
-8.50252130e-03
-1.59492264e-02
1.50501155e-01
-7.71978858e-02
-3.07462627e-02
-7.79873334e-03
7.69040607e-02
-3.25015159e-02
1.38333473e-01
-4.60561899e-03
1.20045257e-02
-2.68506164e-02
-1.02584170e-02
3.70362728e-03
8.35205912e-04
5.93453967e-02
-6.17602380e-03
-1.72945809e-02
2.16444032e-02
6.36817409e-02
5.25519020e-02
-4.06089449e-02
-4.25949336e-02
-9.64911982e-02
-3.45705388e-02
-1.87421163e-03
-1.04017278e-02
-1.54723794e-03
-3.12846043e-03
5.37601517e-04
1.05711527e-02
-1.45789218e-03
-1.46289419e-03
5.42627039e-04
-5.83329061e-04
-8.47494539e-03
-5.24964701e-04
1.50319592e-04
2.44570293e-03
-1.85286726e-04
1.96878308e-02
3.68765944e-02
-6.30829141e-02
-5.57732903e-02
7.71485855e-02
-1.19581232e-01
6.19081570e-02
-5.13921730e-02
-7.99355810e-02
3.77575123e-01
-3.19389340e-03
-6.23360647e-03
3.45888333e-02
-3.35035243e-02
-3.00948204e-02
1.34555995e-01
4.64326191e-03
2.17176322e-02
-5.44430735e-02
2.37686400e-02
2.95016566e-02
1.51898370e-02
-2.98291020e-02
4.04764552e-02
7.90018027e-02
1.32882360e-04
-3.53125635e-04
-2.03085655e-04
-1.11292802e-04
7.72115658e-05
4.98858481e-05
-9.66922380e-04
2.08665494e-04
-2.20102086e-03
-2.88129930e-04
-1.87676330e-04
-3.76327457e-02
-1.00047562e-02
-7.55131710e-02
-1.10322662e-01
7.63848919e-02
1.98556944e-02
-1.40220737e-02
-3.59603066e-02
-1.03726904e-01
-9.38889416e-03
2.02645031e-02
8.66861155e-02
-6.25856223e-03
8.59638423e-03
7.85097149e-03
2.39651317e-02
3.25370691e-03
3.50036039e-02
2.83053398e-03
-5.30952519e-02
3.17010638e-02
-1.64243889e-01
4.55172603e-02
-4.34990112e-02
1.13136597e-01
-1.68632178e-01
2.54172506e-01
-1.28858291e-03
-3.43009610e-03
1.16306401e-03
3.46918429e-03
-5.80676561e-04
-2.31257893e-04
8.71115340e-04
1.35791572e-03
2.34636153e-03
1.28829295e-03
1.07781023e-03
5.45024395e-02
1.48920007e-02
-2.67543532e-02
1.34467062e-01
3.68933377e-02
-9.52143211e-04
1.55809741e-01
-6.45329062e-03
-1.69758186e-02
-3.08404307e-02
3.56301892e-02
-5.84010633e-02
-1.19076046e-02
6.79596441e-03
-2.06230179e-02
-2.27499072e-02
-5.13042376e-03
-9.27665247e-03
-2.17961461e-02
7.83931522e-02
3.08587993e-02
-1.79476750e-01
1.30390030e-01
1.58427666e-02
-6.30869854e-03
-6.33940941e-02
-8.54322116e-03
7.86936743e-04
-3.95044337e-03
3.68956983e-04
1.92022099e-03
-1.61329275e-03
-7.54355281e-03
-5.40342152e-04
-3.39225416e-03
2.02417321e-03
-1.72091329e-03
1.23987328e-05
2.64746996e-03
-5.57588526e-03
-2.32927767e-02
-1.85060294e-01
8.04584805e-02
-6.76024519e-02
-1.73835034e-01
2.40497029e-02
1.94543922e-01
-8.15728031e-03
4.98279298e-03
-1.32396382e-01
-3.74313270e-03
-1.50035200e-04
-2.01917382e-02
9.11672198e-03
2.39190074e-03
-6.80748612e-02
-1.03606010e-03
1.81108787e-03
2.71797730e-03
4.11449205e-02
-4.86667929e-02
8.38317754e-02
-5.88522406e-02
1.12834202e-01
-2.72325061e-01
-2.82789349e-04
2.28748174e-03
5.66146220e-04
3.22887328e-04
5.27425053e-04
-8.42616718e-04
2.88701944e-03
-1.23701166e-03
2.33335278e-03
-2.79774441e-04
1.30074274e-04
-1.21538036e-02
-4.65910815e-03
5.14646792e-02
-1.37131612e-02
-5.02855852e-02
-8.90433007e-02
2.79486236e-02
-1.42420933e-01
3.70217056e-02
-5.03409046e-03
-1.13266005e-02
1.37960732e-02
-4.41289330e-04
-8.02404021e-03
-2.92276723e-03
2.40978002e-02
-5.02145160e-03
2.41967706e-03
-9.94543174e-03
-6.92947924e-03
-3.65207676e-02
4.66122863e-02
-7.69309640e-02
6.64672235e-02
9.51198758e-03
-5.48289676e-02
-5.50892005e-04
-8.32452074e-04
-1.53058745e-03
2.59639629e-03
-5.07848961e-03
-1.87754988e-03
2.02398694e-03
-5.17276915e-03
3.87448655e-03
-4.24893708e-04
-2.95199257e-03
-5.76834408e-02
-3.05534918e-02
5.93068622e-02
6.30571298e-02
1.80129424e-01
-1.40346904e-01
2.85064065e-04
-1.70991083e-04
7.34309974e-05
2.18058092e-03
-1.20821926e-02
7.35364209e-03
3.22872555e-03
-6.25682743e-03
3.40816348e-02
-7.01144067e-02
-1.58559529e-02
-6.31881668e-02
-9.51517094e-05
3.09151644e-04
-1.25989862e-03
2.24823299e-03
1.97090626e-03
-1.87159661e-03
5.91595362e-02
3.16911990e-02
1.59242375e-01
2.00206612e-02
-2.59913588e-01
9.06965042e-02
-5.19764230e-04
2.83665112e-04
-1.90263279e-04
-3.41479258e-04
2.27140819e-03
7.50283842e-03
-2.59445528e-02
-8.73529841e-03
-8.11654235e-02
1.36545530e-01
-2.34994176e-01
2.31752083e-01
-4.16182892e-04
4.09033834e-04
-4.80613242e-04
-1.28468061e-03
4.29567057e-03
-1.42767711e-03
7.59549742e-03
2.34646679e-03
-3.24946257e-02
-6.52663074e-02
1.88089537e-01
-7.80366262e-02
-4.81902170e-05
1.57160216e-05
1.21719044e-04
1.72884075e-03
2.21153929e-03
-2.08389309e-03
2.85946115e-02
2.42255004e-02
5.08459905e-02
2.98162779e-02
-1.00999126e-01
-1.52383552e-01
9.43591916e-04
-3.49885945e-04
8.56732943e-04
-3.92516662e-03
1.34329515e-02
8.01981893e-04
-1.50773915e-02
2.20087086e-02
-4.03207554e-02
-2.88860353e-01
-2.25050358e-03
4.02208011e-02
6.09095617e-05
2.01425432e-04
-1.33308383e-03
5.08372140e-03
-6.16983498e-03
-7.55399100e-03
7.75225171e-03
1.00358246e-02
-4.28445038e-02
1.47995344e-01
1.95763914e-01
-1.97089288e-02
-7.43565262e-05
9.00763603e-04
-7.75616308e-04
6.48252996e-03
2.51483063e-04
2.28532910e-03
-1.35856875e-02
-1.14479234e-02
2.42797886e-03
2.75971092e-01
-3.22740539e-02
-1.24334545e-01
-1.00714104e-03
9.40343103e-04
-7.74324106e-04
4.85370600e-03
2.08748953e-03
7.78647900e-04
-8.12388696e-03
-1.17335665e-02
-6.57108740e-02
-1.43043217e-01
-5.05569946e-02
-9.91118583e-04
4.55619608e-04
1.21168281e-03
-7.44551950e-03
6.23312573e-04
3.51483885e-03
-3.69557510e-03
-2.62294075e-04
1.92793614e-02
1.47874440e-02
3.87145600e-02
-6.83766902e-02
2.74065363e-02
1.77081934e-01
-9.37554601e-02
6.53585223e-02
3.43852083e-03
-2.40530704e-02
1.05788386e-02
-8.83057116e-02
4.23031042e-03
3.60423537e-03
-2.93498621e-03
-3.65983569e-03
1.02471916e-02
-2.25016006e-02
-4.92304999e-02
-3.01103806e-02
2.16766346e-03
4.58654299e-02
3.99575071e-02
-4.53964732e-02
-6.76426727e-03
-4.43019879e-02
-5.50304510e-02
2.30078216e-04
-9.41460845e-05
-1.33798627e-03
-6.02293600e-04
-2.67347175e-05
4.86359771e-04
2.81615797e-04
-3.48423200e-03
-1.31496265e-03
-3.84287330e-04
-2.19501260e-02
-4.19911561e-02
-3.54156838e-01
2.11911935e-01
3.94741845e-02
8.15524143e-02
-2.96401847e-03
-3.23091213e-03
1.19633675e-02
-2.67457849e-02
-8.84397229e-03
6.40623560e-03
-2.06253880e-02
2.15804346e-02
1.44255394e-01
1.20671241e-01
2.09012956e-01
-3.77191081e-02
4.06305584e-03
2.93058182e-03
-2.60488082e-03
9.69741522e-03
7.14943856e-03
-1.13321006e-02
   *****

 Right Dyson orbital norm is 0.9585

Right beta Dyson orbital in the MO basis (canonical Q-Chem's ordering):
0  9.2172e-17  
1  -4.9616e-17 
2  -1.4288e-16 
3  1.5810e-15  
4  -3.0564e-16 
5  -4.3761e-16 
6  -2.8308e-16 
7  3.1895e-16  
8  2.5539e-16  
9  -1.7218e-16 
10 -3.2533e-17 
11 2.5348e-16  
12 -5.0009e-18 
13 2.4591e-17  
14 4.0454e-04  
15 1.1376e-03  
16 -8.0219e-04 
17 -1.3090e-03 
18 -8.7596e-05 
19 -5.4818e-04 
20 -5.1909e-04 
21 -4.7372e-04 
22 1.4912e-03  
23 -8.5129e-04 
24 -2.6621e-03 
25 -2.6918e-03 
26 -4.6973e-04 
27 2.8362e-03  
28 6.8836e-03  
29 6.8404e-03  
30 -9.1259e-03 
31 -2.2953e-02 
32 1.7006e-03  
33 -1.5897e-03 
34 1.5238e-02  
35 -3.2820e-02 
36 2.9944e-02  
37 1.1491e-02  
38 1.0475e-03  
39 -9.5344e-03 
40 4.1164e-03  
41 -5.7902e-03 
42 2.4298e-02  
43 -3.6457e-02 
44 7.3606e-02  
45 -3.3884e-03 
46 3.5431e-03  
47 -8.8664e-03 
48 1.4273e-02  
49 1.1919e-02  
50 -1.8397e-02 
51 8.2866e-03  
52 1.1324e-02  
53 -9.9042e-01 
54 -1.3815e-03 
55 -3.4431e-03 
56 -4.7242e-03 
57 3.5946e-03  
58 1.0968e-04  
59 3.3978e-04  
60 -2.5290e-03 
61 3.6452e-03  
62 -6.7335e-03 
63 -3.8291e-03 
64 -9.6146e-03 
65 -8.7585e-03 
66 2.8405e-03  
67 -5.1062e-03 
68 5.4313e-04  
69 -4.5902e-03 
70 -7.9316e-03 
71 8.8192e-03  
72 -1.0463e-02 
73 -7.2913e-03 
74 -6.6911e-03 
75 -9.1723e-03 
76 5.0581e-03  
77 -8.4803e-03 
78 -2.2573e-03 
79 -5.2506e-04 
80 4.4142e-03  
81 5.4913e-03  
82 -5.8065e-03 
83 -2.5095e-03 
84 1.0018e-02  
85 -1.6038e-03 
86 -6.4809e-03 
87 -1.1220e-02 
88 1.2062e-02  
89 3.2814e-03  
90 -6.3956e-03 
91 -3.2963e-04 
92 4.2326e-03  
93 6.0472e-03  
94 8.4987e-03  
95 3.4190e-03  
96 -5.4546e-03 
97 3.5947e-03  
98 7.4241e-04  
99 2.0330e-03  
100-2.4774e-03 
101-4.0381e-03 
1025.4416e-03  
103-2.9233e-03 
104-6.5549e-04 
105-2.4252e-03 
106-1.1811e-02 
107-2.0895e-03 
1082.1454e-03  
109-7.6955e-03 
110-6.2084e-03 
1117.6168e-03  
1123.6996e-03  
113-1.8974e-03 
114-5.5517e-03 
115-4.5808e-05 
116-5.9463e-03 
1172.9200e-03  
1186.1794e-03  
1199.5636e-03  
1202.6982e-03  
121-2.1972e-03 
122-7.9302e-04 
123-6.2911e-04 
124-6.7867e-04 
125-4.7887e-03 
126-1.3340e-03 
1272.4545e-03  
128-8.5187e-03 
1292.9852e-03  
1301.0195e-03  
1317.5337e-03  
1323.7338e-03  
133-1.6718e-03 
134-1.2108e-03 
135-3.2155e-03 
136-3.6916e-04 
137-4.3655e-03 
138-3.3665e-04 
139-2.2511e-04 
140-7.7335e-03 
141-4.1171e-03 
1421.9684e-03  
143-4.0744e-03 
144-3.7448e-03 
1451.7640e-03  
1466.2547e-04  
1471.0703e-03  
148-1.7183e-03 
149-2.2617e-03 
150-4.8329e-03 
151-4.0134e-03 
1521.6537e-03  
153-6.2159e-03 
154-7.4152e-05 
155-2.0954e-04 
156-7.2632e-03 
157-2.7487e-03 
1583.2130e-03  
1591.1442e-03  
1607.0954e-04  
161-2.2762e-03 
1625.6440e-03  
163-2.6912e-03 
164-5.2614e-04 
1654.0866e-03  
166-1.6541e-03 
1672.6053e-03  
168-2.0764e-03 
169-1.0625e-03 
170-8.6135e-04 
171-4.6804e-04 
172-4.2555e-03 
1733.7338e-04  
174-3.0556e-03 
175-5.5059e-03 
176-2.0699e-04 
1774.8180e-04  
178-4.7236e-03 
179-3.2489e-03 
180-4.7554e-04 
181-5.0092e-03 
1822.2944e-03  
183-5.6814e-03 
1843.4668e-03  
185-1.3000e-03 
186-7.8235e-03 
1871.7422e-03  
188-3.7011e-03 
1892.9819e-03  
190-6.5786e-03 
[...]
542-2.7883e-05 
543-2.2202e-05 
544-7.3480e-05 
545-9.2363e-05 
5462.9700e-05  
5475.8227e-05  
548-6.5151e-05 
5491.8287e-05  
5503.6393e-05  
551-1.8598e-05 
5522.1364e-05  
553-3.1886e-06 
554-6.5256e-06 
555-5.7732e-05 
556-5.4469e-05 
557-5.6077e-05 
5581.3639e-04  
559-7.9909e-05 
5607.6323e-05  
561-9.5781e-05 
5622.9121e-05  
563-3.8872e-05 
5642.3958e-05  
5656.1531e-07  
5664.0363e-05  
5672.7255e-05  
5683.8350e-05  
5691.0655e-05  
570-6.3185e-06 
5711.5934e-05  
5722.9972e-06  
5732.2774e-05  
5745.5510e-06  
575-2.4436e-05 
5761.8466e-05  
577-7.1662e-06 
578-1.1617e-05 
5792.9014e-05  
5801.6098e-05  
5811.7269e-05  
5821.7709e-05  
5834.7788e-05  
5843.8595e-06  
5853.3725e-05  
5864.3103e-05  
587-4.1715e-05 
5882.7745e-05  
5891.4233e-05  
590-7.5122e-06 
5912.7227e-05  

Decomposition over AOs for the right beta Dyson orbital:
-8.40371089e-04
-8.01650652e-03
-8.85094531e-04
6.10517290e-02
-5.15279837e-03
1.51215695e-01
1.05988762e-01
-5.43180639e-01
2.51565497e+00
-1.59874539e+00
1.87311516e-03
-1.09828458e-02
-1.05341285e-02
2.24518218e-02
-5.65976750e-03
-4.93224561e-04
-3.31224472e-02
1.56768533e-01
4.29927292e-02
-4.67974457e-02
7.73399407e-02
-3.20560745e-02
2.88703276e-02
1.16203434e-01
-1.12145628e-01
-1.77418545e-01
8.20448053e-02
1.78438557e-01
9.26915995e-04
-1.74382178e-03
3.01798468e-03
2.72648047e-04
2.15603258e-03
1.30091537e-02
-1.94934906e-03
3.33073202e-03
1.63242160e-03
6.59555689e-03
-9.56083136e-04
-1.58031852e-02
-2.69259824e-02
-1.40771860e-01
-3.90342101e-02
5.48978898e-02
6.40361408e-02
-1.13078274e-01
2.66679106e+00
-1.05856257e+00
-1.13846359e-02
-9.08556573e-03
-1.38275100e-02
2.75680047e-02
-3.35206624e-02
-5.79174876e-03
2.31883675e-02
3.48765906e-02
-9.48271419e-03
9.34527484e-02
-9.34885056e-02
1.60616631e-01
2.53824919e-01
-4.43050890e-01
1.77168229e-01
7.47434162e-02
-2.79713345e-01
4.29481314e-02
-1.29008093e-03
-1.08083586e-03
2.55816116e-03
-1.92620446e-03
-1.19750861e-03
5.43564956e-03
-4.05429009e-03
6.82396009e-03
6.42714496e-04
1.53253677e-02
-5.97025509e-04
-4.54510582e-03
1.85057042e-02
7.80579974e-02
-7.69484404e-02
3.90192819e-02
-7.27121107e-02
2.02551929e-01
7.91317336e-01
-4.13549335e-01
-5.55528873e-03
6.19113733e-03
-1.05060092e-03
3.70904853e-03
-2.73900740e-02
-5.13347207e-03
-3.18578797e-01
1.18594737e-01
1.60056276e-03
9.48563485e-02
-4.85573431e-02
-8.73091997e-02
1.55238552e-01
1.35282768e-01
-1.54806144e-01
-2.09920690e-01
1.99148489e-01
3.49931215e-02
7.11736768e-04
-5.56683617e-04
3.17671057e-03
-3.42454059e-04
3.11031489e-04
2.45093922e-02
5.61200671e-03
7.32796962e-03
1.88821583e-03
-2.45244527e-02
-8.90331860e-04
-2.60807127e-02
-1.43520483e-02
-1.90679161e-02
-8.19526343e-02
1.51277823e-01
-9.92070198e-02
-3.18342877e-01
-1.68428362e+00
-2.69646877e-01
-5.90923096e-04
-1.63077115e-02
-3.25133966e-03
5.34447380e-03
-1.54751940e-02
-2.15562320e-03
-5.07450769e-02
-3.18239586e-02
-1.10039738e-02
-9.38571888e-02
-9.10404206e-02
9.96074745e-03
1.45819779e-01
1.22882407e-01
7.79364838e-02
1.60726617e-01
9.61055017e-02
1.97451687e-01
-2.73768585e-04
-4.14744166e-04
2.01816202e-03
-5.34494316e-04
8.46953635e-04
5.36050958e-03
2.02077886e-03
3.17355615e-03
-2.21429698e-04
-1.42819348e-02
-4.88549262e-04
-2.44330939e-03
-6.43242418e-03
-3.53558942e-02
-3.61885484e-02
9.80419390e-02
5.90889585e-02
8.98054043e-02
1.59287497e+00
1.43067844e+00
2.90610645e-03
7.98488448e-03
-8.41923902e-03
-3.30525730e-04
1.76715709e-02
2.02881877e-03
-1.31261371e-01
3.84482154e-02
-1.20713551e-02
8.66982325e-02
9.97112789e-02
-1.60065743e-02
-3.54028151e-02
-1.46603819e-01
8.86446250e-02
-2.83724412e-01
-1.06235027e-01
2.87513712e-02
-6.71783657e-04
-8.64912100e-04
2.78026725e-03
-3.27760243e-04
4.37962271e-04
-3.57837089e-03
-2.02877159e-03
5.15685108e-03
3.20065058e-04
9.63062359e-04
-7.99396056e-04
-1.07691182e-02
-1.78877117e-02
-2.11262590e-01
1.65544457e-02
1.13011438e-01
1.41141201e-01
-2.53300713e-01
2.90476213e+00
-1.60791079e-01
7.65580973e-03
-1.21576816e-02
-3.70533377e-03
1.05421347e-02
1.93491312e-02
4.41534742e-03
-3.12220285e-02
9.34837249e-02
5.49666802e-03
-1.51297910e-01
-6.02000572e-02
6.29491940e-02
-2.00633269e-01
1.49164726e-02
-6.16486233e-02
1.81499639e-01
1.38017444e-01
-3.55864753e-01
8.37511000e-04
-9.65859117e-04
2.23144312e-03
8.39206208e-04
-1.28955574e-03
-1.71676434e-03
-5.77139918e-04
2.99343443e-03
-1.27194189e-03
-6.68030997e-03
-6.17354352e-04
-1.97877781e-02
-7.05768570e-03
-3.40194617e-02
5.63688569e-02
-1.66708370e-01
-2.28528177e-01
4.82150221e-01
-2.50381944e-01
-2.80290539e+00
-2.12002330e-04
3.98003987e-04
9.35634397e-03
4.79196702e-04
9.98693449e-04
1.13162516e-03
-1.92152016e-03
-4.98297993e-03
2.92535745e-03
3.47146489e-02
1.30690767e-02
-7.83623701e-03
-6.86453658e-02
4.80618780e-02
-1.31977761e-01
-1.64224736e-02
2.12879973e-01
-9.31544689e-02
-9.39466897e-06
-1.27442133e-04
1.78913290e-04
-1.52912887e-04
9.90517505e-05
1.48147814e-04
6.28747956e-05
2.13349193e-04
1.01675262e-04
2.16284750e-04
-8.47020077e-04
-4.43677948e-02
5.65771436e-03
-4.68574205e-01
-2.41210742e-01
2.11151675e-02
2.61952882e-01
-3.72256927e-02
1.77580527e-01
2.12051013e+00
1.11640645e-02
-7.35856263e-03
-1.30988013e-03
2.71764568e-02
-1.02023829e-02
-8.73602249e-04
-8.37267155e-02
4.81614046e-02
2.05317591e-04
6.63024366e-02
-2.93601009e-02
5.22758604e-02
4.23639122e-02
5.68452753e-02
5.16673739e-02
1.64841663e-01
1.07857579e-01
-2.79032809e-01
-6.00862029e-05
-1.79667143e-04
8.50977773e-04
2.12014492e-05
1.57509429e-04
-3.94512245e-03
-8.24351918e-04
-1.05279527e-03
-2.60933993e-04
2.99820562e-03
-5.29988911e-04
-1.49005750e-02
-3.97629807e-03
-1.25704276e-02
1.66617486e-01
-9.17230526e-02
-1.85477184e-01
3.19267153e-01
-7.70585449e-02
-2.00912012e+00
-1.90457024e-04
-3.18682042e-03
6.16585185e-04
2.05187933e-04
-5.92538127e-05
-9.47423599e-05
-1.23304589e-03
-5.76898282e-03
-7.09899189e-04
-2.06949348e-02
-3.45954793e-02
-6.86755576e-03
2.25387164e-02
7.08206891e-03
4.73032242e-03
8.36591562e-02
8.78107169e-03
-8.38883192e-02
-5.53675615e-05
-7.71558775e-06
2.67841460e-04
1.02538081e-04
-8.55455762e-06
-1.54192538e-04
8.24102344e-05
3.51880837e-04
2.18738058e-04
-3.03624077e-05
-1.94392927e-04
-8.51307794e-03
-2.68091665e-03
8.74602308e-03
2.54967918e-01
-1.88805344e-01
-1.83834793e-01
6.03064784e-01
-6.90630971e-01
-1.79902342e+00
4.68445288e-03
-3.58084411e-03
1.09025812e-02
5.43624667e-05
9.32861701e-04
6.34945084e-04
-1.04644485e-02
3.65688172e-03
8.41116784e-03
-5.05294184e-02
8.61110052e-03
-1.12205149e-02
7.64852607e-02
6.69567770e-02
-1.05365396e-01
6.47842536e-02
-1.38619964e-01
1.11288629e-01
6.76061251e-05
1.15672273e-04
8.11730916e-05
-1.30085808e-04
1.44764170e-04
-5.45206192e-05
4.71915616e-04
-3.11680503e-04
-2.55547615e-04
3.09780752e-04
-7.24067430e-04
-3.07089374e-02
-1.17303825e-02
-8.37839638e-02
-4.84810720e-02
1.07366503e-01
9.10729552e-02
-3.54734304e-01
6.56554672e-01
8.52867553e-01
9.37898947e-04
7.83999842e-03
-1.92198919e-02
-2.40987957e-03
1.53472783e-03
-2.58740036e-04
-5.01716504e-03
8.77083273e-03
-2.38258807e-03
-2.38992373e-02
3.23348405e-02
-3.26755335e-02
1.14008045e-01
-1.08734686e-01
-4.58798490e-02
-1.02367182e-01
-7.73535321e-02
1.00974682e-01
-5.04601059e-04
-2.78911774e-04
-9.86883405e-05
-3.64306244e-04
1.93774240e-04
3.55258578e-04
4.28399199e-04
-7.46398732e-04
2.27437458e-04
2.70970698e-05
-4.82275193e-04
-1.65552039e-02
-6.64675949e-03
-1.57858059e-02
3.01212044e-01
-2.35376221e-01
-1.55412983e-01
4.39086081e-01
-1.38693311e+00
-3.71101806e+00
-4.53720202e-03
-9.84986609e-03
1.78059181e-03
1.43049501e-03
1.36042983e-04
4.83407726e-05
-1.70531981e-03
7.14707429e-03
3.70105723e-03
-1.45212172e-02
3.77156958e-02
-7.25459392e-04
4.22204351e-02
-7.79639647e-02
-6.07257324e-02
-6.31162143e-02
-7.71693693e-02
2.47019264e-01
-1.99448824e-04
-1.28432973e-04
3.49109909e-04
1.00729541e-04
4.13446342e-06
-3.73383842e-04
-1.51735016e-05
5.18756721e-04
1.27034795e-04
-1.78955388e-04
-6.04956916e-04
-2.55657741e-02
-1.28921561e-02
-9.40959132e-02
-3.52247834e-02
-1.32150909e-02
1.93103490e-01
-2.57093170e-01
2.12037929e+00
1.83313825e+00
1.27929110e-02
1.22060521e-02
-7.20900151e-03
4.56760118e-03
-4.95109122e-04
-7.29652952e-04
9.01224051e-03
-1.07991831e-02
6.22614467e-03
2.33415147e-02
-6.66474283e-04
6.23675330e-02
-5.02027013e-02
-4.20006400e-02
-1.26222142e-01
6.77631584e-02
8.24061273e-02
-2.30917619e-02
-1.56665354e-04
1.41340623e-04
5.69326307e-04
4.46118406e-04
2.45020803e-04
1.17136736e-04
1.04139339e-04
3.25041916e-04
2.62995582e-04
3.38290333e-04
-2.13169432e-03
2.94263377e-02
3.15405615e-02
1.61195433e-01
3.89095497e-01
9.39074633e-01
-6.38961302e-04
-9.06915680e-04
1.49999928e-03
2.42617200e-03
9.05469344e-04
-8.29041277e-04
-5.37556830e-03
1.85883248e-02
4.39775105e-02
7.30555615e-02
-2.29005504e-01
-8.04144328e-02
2.66160447e-04
1.80026691e-03
3.99029012e-04
-1.24781418e-03
2.36042830e-03
9.28672684e-04
4.12590654e-04
2.69615175e-02
7.46110058e-02
3.95033510e-01
-2.95537452e-01
-5.16194748e-01
-4.55228309e-04
-3.25756922e-04
-1.74706099e-03
1.11572364e-03
3.50540308e-04
3.60099235e-04
2.40510741e-03
1.10584780e-02
1.10826193e-01
4.40808565e-02
-4.59494543e-01
4.90908334e-01
-3.44359220e-04
3.26406901e-04
-1.07657458e-03
3.52564179e-04
3.62387554e-04
-1.17699703e-03
-4.16842976e-03
4.37262906e-03
2.08680780e-02
-5.65287748e-02
-9.88568013e-02
2.34683504e-01
8.05644166e-04
-8.57644750e-04
-6.82716264e-06
1.92371707e-03
-1.80124115e-03
1.88685276e-05
-3.39216097e-03
1.08297341e-02
-3.54638932e-02
1.48968266e-02
-4.22196010e-03
1.00812802e-01
-9.35842549e-05
6.49204150e-04
1.25800933e-03
3.11153179e-04
1.29618079e-03
1.41681029e-03
-6.59618727e-03
6.26583844e-03
5.57744686e-02
1.49264560e-01
2.78991261e-01
2.20393473e-02
-3.40741963e-05
1.08632931e-03
9.71277517e-04
-1.99779174e-03
2.21307293e-03
3.02407234e-03
-5.31874878e-03
4.49518348e-03
7.78997163e-02
2.03941367e-01
-8.37777388e-01
1.40244095e-01
-1.18246111e-03
-9.34302593e-04
2.13802341e-04
-2.78273765e-03
-2.22160252e-03
2.16093690e-03
3.68571461e-03
1.47413628e-02
1.12887856e-01
-1.47602243e-01
-3.82922388e-01
5.11472286e-01
8.70266041e-04
-3.05098629e-04
-5.63169559e-04
-5.86142934e-04
2.32054192e-04
-6.90659804e-04
-1.64058834e-02
-6.70106298e-03
1.08785357e-01
-1.58979902e-02
-5.90795153e-01
-1.67354234e-01
-1.31172187e-04
1.36227748e-03
3.26939940e-04
-1.58341775e-03
3.44563946e-03
1.28649299e-03
-9.25092053e-04
-2.85056138e-02
-7.10552808e-03
-3.28871382e-02
-8.70611323e-02
-2.40845814e-01
1.19527997e-01
2.29057661e-01
-2.02591853e-01
-9.87174948e-01
-2.07718567e-02
-1.42256292e-02
-5.24852509e-03
-1.66118508e-03
-1.23907465e-03
1.20155162e-03
-1.21519389e-02
-9.23121462e-03
2.34467667e-03
9.21018604e-03
-2.01237171e-03
5.00951670e-03
-4.23516608e-02
-1.68431427e-02
-5.46535987e-03
3.02211559e-02
3.21226344e-02
-1.03431669e-01
-2.89057151e-04
7.11849996e-05
1.05574901e-04
1.41964064e-04
-1.12124892e-04
-1.57008792e-05
2.48714554e-04
1.93112781e-04
5.81625616e-04
6.99814120e-05
6.36448180e-03
1.36046907e-02
2.33159181e-01
1.20469928e-01
-1.23051191e-01
-6.88077206e-01
-3.66601270e-04
-2.02408547e-05
-1.31720724e-03
-1.13308432e-03
4.84012996e-04
-1.27560542e-03
2.39637046e-03
1.55890007e-02
4.67306740e-02
2.11826697e-01
-9.87672143e-03
1.58774634e-01
2.74850252e-03
1.35898868e-03
1.33228545e-03
8.56303723e-03
4.73009011e-03
2.95663625e-03
   *****

     End transition


 All requested transition properties have been computed


 Transition Properties  CPU 33.41 s  wall 4.07 s
 Total ccman2 time:   CPU 47395.04 s  wall 1687.21 s


 --------------------------------------------------------------

                    Orbital Energies (a.u.)
 --------------------------------------------------------------

 Alpha MOs
 -- Occupied --
-20.6173 -20.6067 -20.6022 -20.5896 -20.5580 -11.3984 -11.3700 -11.3508
-11.3366 -11.3037 -11.2992 -11.2975 -11.2900 -11.2592  -1.4560  -1.4336
 -1.4168  -1.3960  -1.3419  -1.1689  -1.0878  -1.0076  -0.9801  -0.9536
 -0.9246  -0.8489  -0.8263  -0.7600  -0.7358  -0.7162  -0.7025  -0.6770
 -0.6684  -0.6593  -0.6467  -0.6401  -0.6277  -0.6200  -0.5998  -0.5904
 -0.5821  -0.5687  -0.5650  -0.5502  -0.5419  -0.5311  -0.5186  -0.4893
 -0.4838  -0.4578  -0.4485  -0.4110  -0.3593
 -- Virtual --
 -0.0120   0.0006   0.0011   0.0012   0.0014   0.0020   0.0024   0.0026
  0.0031   0.0032   0.0037   0.0041   0.0048   0.0056   0.0060   0.0064
  0.0069   0.0079   0.0086   0.0088   0.0091   0.0096   0.0100   0.0113
  0.0116   0.0123   0.0124   0.0131   0.0138   0.0139   0.0153   0.0155
  0.0167   0.0181   0.0185   0.0192   0.0195   0.0206   0.0212   0.0217
  0.0221   0.0226   0.0232   0.0235   0.0237   0.0240   0.0246   0.0253
  0.0256   0.0269   0.0272   0.0274   0.0286   0.0293   0.0308   0.0329
  0.0336   0.0356   0.0367   0.0383   0.0393   0.0399   0.0408   0.0417
  0.0422   0.0433   0.0446   0.0453   0.0459   0.0464   0.0471   0.0476
  0.0488   0.0501   0.0506   0.0510   0.0520   0.0531   0.0541   0.0544
  0.0558   0.0572   0.0577   0.0582   0.0594   0.0609   0.0617   0.0624
  0.0640   0.0645   0.0655   0.0676   0.0693   0.0708   0.0711   0.0741
  0.0752   0.0782   0.0801   0.0810   0.0827   0.0838   0.0850   0.0870
  0.0875   0.0883   0.0898   0.0939   0.0967   0.0974   0.0989   0.1015
  0.1028   0.1039   0.1058   0.1066   0.1080   0.1097   0.1104   0.1114
  0.1132   0.1142   0.1160   0.1167   0.1188   0.1205   0.1231   0.1245
  0.1264   0.1268   0.1283   0.1290   0.1308   0.1321   0.1338   0.1366
  0.1380   0.1394   0.1399   0.1435   0.1462   0.1481   0.1490   0.1502
  0.1542   0.1547   0.1590   0.1592   0.1659   0.1687   0.1716   0.1740
  0.1763   0.1784   0.1791   0.1819   0.1833   0.1859   0.1879   0.1912
  0.1938   0.1977   0.1993   0.2017   0.2050   0.2059   0.2106   0.2121
  0.2158   0.2188   0.2214   0.2223   0.2232   0.2287   0.2305   0.2343
  0.2366   0.2384   0.2396   0.2424   0.2456   0.2488   0.2511   0.2558
  0.2584   0.2672   0.2690   0.2707   0.2734   0.2736   0.2805   0.2812
  0.2844   0.2882   0.2906   0.2955   0.2972   0.3002   0.3069   0.3122
  0.3166   0.3194   0.3252   0.3291   0.3309   0.3338   0.3388   0.3396
  0.3483   0.3534   0.3559   0.3653   0.3672   0.3716   0.3775   0.3793
  0.3838   0.3877   0.3950   0.3969   0.4001   0.4027   0.4069   0.4188
  0.4200   0.4293   0.4297   0.4392   0.4396   0.4481   0.4508   0.4556
  0.4589   0.4641   0.4660   0.4677   0.4741   0.4782   0.4815   0.4837
  0.4854   0.4894   0.4944   0.4998   0.5024   0.5137   0.5157   0.5207
  0.5244   0.5280   0.5365   0.5404   0.5473   0.5511   0.5554   0.5615
  0.5662   0.5679   0.5728   0.5769   0.5797   0.5876   0.5922   0.5956
  0.6094   0.6193   0.6221   0.6272   0.6284   0.6343   0.6425   0.6482
  0.6579   0.6597   0.6666   0.6710   0.6735   0.6780   0.6824   0.6873
  0.6924   0.6988   0.7072   0.7092   0.7154   0.7173   0.7236   0.7263
  0.7321   0.7434   0.7477   0.7499   0.7549   0.7594   0.7624   0.7689
  0.7726   0.7848   0.7931   0.8001   0.8017   0.8105   0.8187   0.8218
  0.8266   0.8284   0.8356   0.8411   0.8446   0.8515   0.8611   0.8768
  0.8809   0.8868   0.8925   0.8988   0.9013   0.9082   0.9141   0.9355
  0.9414   0.9450   0.9546   0.9609   0.9669   0.9809   0.9848   1.0003
  1.0039   1.0064   1.0188   1.0241   1.0429   1.0569   1.0660   1.0740
  1.0846   1.0962   1.1060   1.1114   1.1191   1.1342   1.1444   1.1545
  1.1583   1.1652   1.1696   1.1864   1.1932   1.2049   1.2119   1.2306
  1.2475   1.2540   1.2644   1.2786   1.2830   1.2895   1.2975   1.3167
  1.3413   1.3472   1.3534   1.3632   1.3773   1.3897   1.4013   1.4085
  1.4171   1.4353   1.4404   1.4546   1.4653   1.4789   1.4894   1.5021
  1.5061   1.5188   1.5318   1.5464   1.5498   1.5704   1.5859   1.6072
  1.6116   1.6163   1.6510   1.6626   1.6692   1.6756   1.6783   1.6834
  1.6979   1.7047   1.7126   1.7262   1.7312   1.7421   1.7484   1.7598
  1.7664   1.7777   1.7854   1.7899   1.8005   1.8093   1.8191   1.8311
  1.8484   1.8597   1.8744   1.8891   1.8955   1.9025   1.9246   1.9317
  1.9377   1.9460   1.9494   1.9514   1.9571   1.9722   1.9797   1.9940
  2.0080   2.0210   2.0412   2.0520   2.0635   2.0798   2.0849   2.1013
  2.1108   2.1185   2.1419   2.1524   2.1545   2.1644   2.1736   2.1815
  2.2068   2.2103   2.2157   2.2242   2.2529   2.2577   2.2619   2.2780
  2.2811   2.2879   2.2974   2.3090   2.3172   2.3296   2.3399   2.3566
  2.3740   2.3787   2.3850   2.4014   2.4130   2.4331   2.4399   2.4486
  2.4964   2.4965   2.5052   2.5133   2.5274   2.5406   2.5474   2.5710
  2.5870   2.5915   2.6354   2.6523   2.6685   2.6778   2.7012   2.7245
  2.7332   2.7483   2.7518   2.7861   2.7974   2.8229   2.8290   2.8607
  2.8853   2.9297   2.9340   2.9630   2.9769   2.9839   3.0320   3.0423
  3.0490   3.0869   3.0908   3.1453   3.1614   3.2084   3.2519   3.3422
  3.3744   3.3954   3.4293   3.4938   3.4954   3.5821   3.6523   3.7243
  3.7696   3.8083   3.8088   3.8203   3.8396   3.8639   3.8680   3.8823
  3.8992   3.9259   3.9392   3.9585   3.9908   4.0162   4.0381   4.0720
  4.0955   4.1079   4.1590   4.1779   4.1834   4.2262   4.2526   4.2861
  4.3086   4.5590   4.8871
 --------------------------------------------------------------

          Ground-State Mulliken Net Atomic Charges

     Atom                 Charge (a.u.)
  ----------------------------------------
      1 C                     1.399900
      2 C                     0.233294
      3 C                     0.516523
      4 C                     1.918647
      5 C                    -0.232624
      6 C                     0.614237
      7 O                    -1.398826
      8 C                     0.475540
      9 O                    -1.042549
     10 O                    -1.058379
     11 C                     0.975472
     12 O                    -1.186744
     13 C                     1.223698
     14 H                     0.099447
     15 H                    -0.279896
     16 H                     0.032495
     17 H                    -0.120314
     18 H                    -0.611307
     19 H                    -0.364378
     20 H                    -0.132086
     21 H                    -0.209116
     22 H                    -0.400243
     23 H                    -0.906812
     24 O                    -0.487199
     25 H                     0.711221
     26 H                     0.229999
  ----------------------------------------
  Sum of atomic charges =     0.000000

 -----------------------------------------------------------------
                    Cartesian Multipole Moments
 -----------------------------------------------------------------
    Charge (ESU x 10^10)
                -0.0000
    Dipole Moment (Debye)
         X      -0.5155      Y       0.2680      Z       0.3718
       Tot       0.6898
    Quadrupole Moments (Debye-Ang)
        XX    -100.2147     XY     -14.5808     YY     -77.3085
        XZ       8.7890     YZ      -0.3791     ZZ     -85.0889
    Octopole Moments (Debye-Ang^2)
       XXX      24.9421    XXY     -14.2184    XYY     -20.5159
       YYY     -22.2137    XXZ     -10.4632    XYZ     -18.0196
       YYZ      -4.9091    XZZ      12.0266    YZZ       0.4851
       ZZZ       1.2549
    Hexadecapole Moments (Debye-Ang^3)
      XXXX   -2034.8255   XXXY    -149.0173   XXYY    -595.1976
      XYYY     -35.7491   YYYY   -1366.7441   XXXZ      97.3631
      XXYZ      11.1157   XYYZ      17.0927   YYYZ      14.9542
      XXZZ    -410.3288   XYZZ     -10.6728   YYZZ    -315.4266
      XZZZ      12.6107   YZZZ       8.2286   ZZZZ    -309.4138
 -----------------------------------------------------------------
 Total job time:  2235.82s(wall), 59261.13s(cpu) 
 Wed May  7 12:29:26 2025

        *************************************************************
        *                                                           *
        *  Thank you very much for using Q-Chem.  Have a nice day.  *
        *                                                           *
        *************************************************************


