                  Welcome to Q-Chem
     A Quantum Leap Into The Future Of Chemistry


 Q-Chem 6.2 (devel), Q-Chem, Inc., Pleasanton, CA (2024)

 E. Epifanovsky,  A. T. B. Gilbert,  Xintian Feng,  Joonho Lee,  Yuezhi Mao,  
 N. Mardirossian,  P. Pokhilko,  A. White,  M. Wormit,  M. P. Coons,  
 A. L. Dempwolff,  Zhengting Gan,  D. Hait,  P. R. Horn,  L. D. Jacobson,  
 I. Kaliman,  J. Kussmann,  A. W. Lange,  Ka Un Lao,  D. S. Levine,  Jie Liu,  
 S. C. McKenzie,  A. F. Morrison,  K. D. Nanda,  F. Plasser,  D. R. Rehn,  
 M. L. Vidal,  Zhi-Qiang You,  Ying Zhu,  Huseyin Aksu,  B. Alam,  
 B. Albrecht,  A. Aldossary,  E. Alguire,  J. H. Andersen,  
 J. E. Arias-Martinez,  V. Athavale,  D. Barton,  K. Begam,  A. Behn,  
 N. Bellonzi,  Y. A. Bernard,  E. J. Berquist,  H. Burton,  A. Carreras,  
 K. Carter-Fenk,  Mathew Chow,  Romit Chakraborty,  Chandrima Chakravarty,  
 Junhan Chen,  A. D. Chien,  K. D. Closser,  V. Cofer-Shabica,  L. Cunha,  
 S. Dasgupta,  Jia Deng,  Joseph Dickinson,  M. de Wergifosse,  
 M. Diedenhofen,  Hainam Do,  Wenjie Dou,  S. Ehlert,  Po-Tung Fang,  
 S. Fatehi,  Qingguo Feng,  Jonathan Fetherolf,  T. Friedhoff,  
 Thomas Froitzheim,  Sarai Folkestad,  B. Ganoe,  J. Gayvert,  Qinghui Ge,  
 G. Gidofalvi,  M. Gimferrer,  M. Goldey,  Montgomery Gray,  J. Gomes,  
 C. Gonzalez-Espinoza,  S. Gulania,  A. Gunina,  J. A. Gyamfi,  
 M. W. D. Hanson-Heine,  P. H. P. Harbach,  A. W. Hauser,  M. F. Herbst,  
 M. Hernandez Vera,  M. Hodecker,  Z. C. Holden,  S. Houck,  Xunkun Huang,  
 Kerwin Hui,  B. C. Huynh,  K. Ikeda,  M. Ivanov,  Nayanthara K. Jayadev,  
 Hyunjun Ji,  Zuxin Jin,  Hanjie Jiang,  Subrata Jana,  B. Kaduk,  
 S. Kaehler,  R. Kang,  K. Khistyaev,  Jaehoon Kim,  Yongbin Kim,  
 P. Klunzinger,  Z. Koczor-Benda,  Joong Hoon Koh,  D. Kosenkov,  
 Saikiran Kotaru,  L. Koulias,  T. Kowalczyk,  C. M. Krauter,  K. Kue,  
 A. Kunitsa,  T. Kus,  A. Landau,  K. V. Lawler,  D. Lefrancois,  S. Lehtola,  
 Rain Li,  Shaozhi Li,  Tao E. Li,  Yi-Pei Li,  Jiashu Liang,  M. Liebenthal,  
 Hung-Hsuan Lin,  You-Sheng Lin,  Fenglai Liu,  Kuan-Yu Liu,  Xiao Liu,  
 M. Loipersberger,  A. Luenser,  C. Malbon,  Aniket Mandal,  Manisha,  
 A. Manjanath,  P. Manohar,  E. Mansoor,  S. F. Manzer,  Shan-Ping Mao,  
 A. V. Marenich,  T. Markovich,  S. Mason,  F. Matz,  S. A. Maurer,  
 Samuel May,  Alexandra McIsaac,  P. F. McLaughlin,  M. F. S. J. Menger,  
 J.-M. Mewes,  S. A. Mewes,  P. Morgante,  Mohammad Mostafanejad,  
 Madhubani Mukherjee,  J. W. Mullinax,  Quyen Nguyen,  Avik Kumar Ojha,  
 K. J. Oosterbaan,  Eno Paenurk,  Xiaoliang Pan,  G. Paran,  V. Parravicini,  
 Alexander C. Paul,  Suranjan K. Paul,  F. Pavosevic,  Zheng Pei,  S. Prager,  
 E. I. Proynov,  E. Ramos,  B. Rana,  A. E. Rask,  A. Rettig,  R. M. Richard,  
 F. Rob,  E. Rossomme,  T. Scheele,  M. Scheurer,  M. Schneider,  
 P. E. Schneider,  Tim K. Schramm,  N. Sergueev,  S. M. Sharada,  
 Hengyuan Shen,  W. Skomorowski,  D. W. Small,  C. J. Stein,  
 Alistair J. Sterling,  Yingli Su,  Yu-Chuan Su,  E. J. Sundstrom,  
 J. Talbot,  Zhen Tao,  J. Thirman,  Hung-Yi Tsai,  T. Tsuchimochi,  
 N. M. Tubman,  C. Utku,  S. P. Veccham,  O. Vydrov,  Rahel Weiss,  
 J. Wenzel,  Jonathan Wong,  J. Witte,  H. Wu,  Yanze Wu,  A. Yamada,  
 Chou-Hsun Yang,  Kun Yao,  S. Yeganeh,  S. R. Yost,  Qi Yu,  A. Zech,  
 F. Zeller,  Chongxiao Zhao,  Igor Ying Zhang,  Xing Zhang,  Yu Zhang,  
 D. Zuev,  A. Aspuru-Guzik,  A. T. Bell,  N. A. Besley,  K. B. Bravaya,  
 B. R. Brooks,  D. Casanova,  Jeng-Da Chai,  Hsing-Ta Chen,  S. Coriani,  
 C. J. Cramer,  A. E. DePrince, III,  R. A. DiStasio Jr.,  A. Dreuw,  
 B. D. Dunietz,  T. R. Furlani,  W. A. Goddard III,  S. Grimme,  
 S. Hammes-Schiffer,  T. Head-Gordon,  W. J. Hehre,  Chao-Ping Hsu,  
 T.-C. Jagau,  Yousung Jung,  A. Klamt,  Jing Kong,  D. S. Lambrecht,  
 Xiangyuan Li,  WanZhen Liang,  N. J. Mayhall,  C. W. McCurdy,  J. B. Neaton,  
 T. Neudecker,  C. Ochsenfeld,  J. A. Parkhill,  R. Peverati,  
 V. A. Rassolov,  Haisheng Ren,  Yihan Shao,  L. V. Slipchenko,  
 R. P. Steele,  J. E. Subotnik,  A. J. W. Thom,  A. Tkatchenko,  
 D. G. Truhlar,  T. Van Voorhis,  Fan Wang,  T. A. Wesolowski,  K. B. Whaley,  
 H. L. Woodcock III,  P. M. Zimmerman,  S. Faraji,  P. M. W. Gill,  
 M. Head-Gordon,  J. M. Herbert,  A. I. Krylov

 Contributors to earlier versions of Q-Chem not listed above: 
 R. D. Adamson,  B. Austin,  R. Baer,  J. Baker,  G. J. O. Beran,  
 K. Brandhorst,  S. T. Brown,  E. F. C. Byrd,  Arup K. Chakraborty,  
 G. K. L. Chan,  Chun-Min Chang,  Yunqing Chen,  C.-L. Cheng,  
 Siu Hung Chien,  D. M. Chipman,  D. L. Crittenden,  H. Dachsel,  
 R. J. Doerksen,  A. D. Dutoi,  R. G. Edgar,  J. Fosso-Tande,  
 L. Fusti-Molnar,  D. Ghosh,  A. Ghysels,  A. Golubeva-Zadorozhnaya,  
 J. Gonthier,  M. S. Gordon,  S. R. Gwaltney,  G. Hawkins,  J. E. Herr,  
 A. Heyden,  S. Hirata,  E. G. Hohenstein,  G. Kedziora,  F. J. Keil,  
 C. Kelley,  Jihan Kim,  R. A. King,  R. Z. Khaliullin,  P. P. Korambath,  
 W. Kurlancheek,  A. Laurent,  A. M. Lee,  M. S. Lee,  S. V. Levchenko,  
 Ching Yeh Lin,  D. Liotard,  E. Livshits,  R. C. Lochan,  I. Lotan,  
 L. A. Martinez-Martinez,  P. E. Maslen,  N. Nair,  D. P. O'Neill,  
 D. Neuhauser,  E. Neuscamman,  C. M. Oana,  R. Olivares-Amaya,  R. Olson,  
 T. M. Perrine,  B. Peters,  P. A. Pieniazek,  A. Prociuk,  Y. M. Rhee,  
 J. Ritchie,  M. A. Rohrdanz,  E. Rosta,  N. J. Russ,  H. F. Schaefer III,  
 M. W. Schmidt,  N. E. Schultz,  S. Sharma,  N. Shenvi,  C. D. Sherrill,  
 A. C. Simmonett,  A. Sodt,  T. Stein,  D. Stuck,  K. S. Thanthiriwatte,  
 V. Vanovschi,  L. Vogt,  Tao Wang,  A. Warshel,  M. A. Watson,  
 C. F. Williams,  Q. Wu,  X. Xu,  Jun Yang,  W. Zhang,  Yan Zhao

   Please cite Q-Chem as follows:
  "Software for the frontiers of quantum chemistry:
   An overview of developments in the Q-Chem 5 package"
   J. Chem. Phys. 155, 084801 (2021)
   https://doi.org/10.1063/5.0055522 (open access)

 Q-Chem 6.2.1 for Intel X86 EM64T Linux

 Parts of Q-Chem use Armadillo 9.900.5 (Nocturnal Misbehaviour).
 http://arma.sourceforge.net/

 Q-Chem begins on Thu May 15 16:12:39 2025  

 Host: k28l11
0

     Scratch files written to /scratch/leuven/372/vsc37243/qchem259063//
 Processing $rem in /data/leuven/372/vsc37243/qchem-dyson-EA-NoL/config/preferences:
 Processing $rem in /user/leuven/372/vsc37243/.qchemrc:

 Checking the input file for inconsistencies... 	...done.

--------------------------------------------------------------
User input:
--------------------------------------------------------------
$molecule
0 1
C 0.000000 0.000000 0.000000
C -0.746662 -1.294961 -0.068132
C -0.002477 -2.570570 -0.000000
C 1.359385 -2.576367 -0.000760
C 2.106431 -1.288062 -0.000000
C 1.354143 0.000000 0.062050
O -1.970146 -1.298213 -0.209423
O 3.337499 -1.289492 -0.049103
O -0.742267 -3.708585 0.096203
C -0.888329 -4.454270 -1.130619
O 2.010927 -3.759972 0.063662
C 3.203555 -3.976468 -0.734371
C -0.878234 1.216468 0.003015
C 2.221392 1.236841 0.106108
C 2.935023 1.442825 1.420371
C 4.255883 1.457684 1.645208
C 5.310752 1.240010 0.595875
C 4.786588 1.701282 3.035484
H -0.313981 2.135525 0.160236
H -1.640289 1.124641 0.783479
H -1.423855 1.288801 -0.944850
H -1.456624 -5.346696 -0.866964
H 0.092992 -4.737397 -1.526483
H -1.443201 -3.860207 -1.865047
H 3.246193 -5.058681 -0.872139
H 4.088150 -3.612952 -0.212266
H 3.111675 -3.474787 -1.701332
H 1.604873 2.114735 -0.110268
H 2.955324 1.156226 -0.702215
H 2.273022 1.599078 2.273799
H 4.894778 1.043239 -0.392649
H 5.937826 0.381331 0.868196
H 5.973797 2.113550 0.534240
H 5.389247 0.847884 3.374581
H 3.977667 1.860527 3.754062
H 5.445348 2.580038 3.054332
$end
!dih1 -80 dih2 140
$end

$rem
   CCMAN2                       1
   MEM_TOTAL                    1000000
   CC_MEMORY			950000
   MEM_STATIC                   2000
   METHOD                       cc2
   BASIS                        gen
   PURECART                     11
   AUX_BASIS                    rimp2-aug-cc-pVDZ
   N_FROZEN_CORE                fc
   EA_STATES                    [2]
   SCF_CONVERGENCE              10
   MAX_SCF_CYCLES               200
   CC_CONVERGENCE               8
   EOM_DAVIDSON_CONVERGENCE     8
   CC_TRANS_PROP		TRUE
   CC_DO_DYSON			TRUE
   CC_EOM_PROP			TRUE
   !PRINT_ORBITALS               TRUE
$end

$basis
H     0
S   4   1.00
      1.301000D+01           1.968500D-02
      1.962000D+00           1.379770D-01
      4.446000D-01           4.781480D-01
      1.220000D-01           5.012400D-01
S   1   1.00
      1.220000D-01           1.000000D+00
S   1   1.00
      0.0297400              1.0000000
S   1   1.00
      0.01487              1.0000000
S   1   1.00
      0.007435              1.0000000
S   1   1.00
      0.0037175              1.0000000
P   1   1.00
      7.270000D-01           1.0000000
P   1   1.00
      0.1410000              1.0000000
****
C     0
S   9   1.00
      6.665000D+03           6.920000D-04
      1.000000D+03           5.329000D-03
      2.280000D+02           2.707700D-02
      6.471000D+01           1.017180D-01
      2.106000D+01           2.747400D-01
      7.495000D+00           4.485640D-01
      2.797000D+00           2.850740D-01
      5.215000D-01           1.520400D-02
      1.596000D-01          -3.191000D-03
S   9   1.00
      6.665000D+03          -1.460000D-04
      1.000000D+03          -1.154000D-03
      2.280000D+02          -5.725000D-03
      6.471000D+01          -2.331200D-02
      2.106000D+01          -6.395500D-02
      7.495000D+00          -1.499810D-01
      2.797000D+00          -1.272620D-01
      5.215000D-01           5.445290D-01
      1.596000D-01           5.804960D-01
S   1   1.00
      1.596000D-01           1.000000D+00
S   1   1.00
      0.0469000              1.0000000
S   1   1.00
      0.02345              1.0000000
S   1   1.00
      0.011725              1.0000000
S   1   1.00
      0.0058625              1.0000000
S   1   1.00
      0.00293125              1.0000000
S   1   1.00
      0.00146562              1.0000000
S   1   1.00
      0.00073281              1.0000000
P   4   1.00
      9.439000D+00           3.810900D-02
      2.002000D+00           2.094800D-01
      5.456000D-01           5.085570D-01
      1.517000D-01           4.688420D-01
P   1   1.00
      1.517000D-01           1.000000D+00
P   1   1.00
      0.0404100              1.0000000
P   1   1.00
      0.020205              1.0000000
P   1   1.00
      0.0101025              1.0000000
P   1   1.00
      0.00505125              1.0000000
D   1   1.00
      5.500000D-01           1.0000000
D   1   1.00
      0.1510000              1.0000000
****
N     0
S   9   1.00
      9.046000D+03           7.000000D-04
      1.357000D+03           5.389000D-03
      3.093000D+02           2.740600D-02
      8.773000D+01           1.032070D-01
      2.856000D+01           2.787230D-01
      1.021000D+01           4.485400D-01
      3.838000D+00           2.782380D-01
      7.466000D-01           1.544000D-02
      2.248000D-01          -2.864000D-03
S   9   1.00
      9.046000D+03          -1.530000D-04
      1.357000D+03          -1.208000D-03
      3.093000D+02          -5.992000D-03
      8.773000D+01          -2.454400D-02
      2.856000D+01          -6.745900D-02
      1.021000D+01          -1.580780D-01
      3.838000D+00          -1.218310D-01
      7.466000D-01           5.490030D-01
      2.248000D-01           5.788150D-01
S   1   1.00
      2.248000D-01           1.000000D+00
S   1   1.00
      0.0612400              1.0000000
S   1   1.00
      0.03062              1.0000000
S   1   1.00
      0.01531              1.0000000
S   1   1.00
      0.007655              1.0000000
S   1   1.00
      0.0038275              1.0000000
S   1   1.00
      0.00191375              1.0000000
S   1   1.00
      0.000956875              1.0000000
P   4   1.00
      1.355000D+01           3.991900D-02
      2.917000D+00           2.171690D-01
      7.973000D-01           5.103190D-01
      2.185000D-01           4.622140D-01
P   1   1.00
      2.185000D-01           1.000000D+00
P   1   1.00
      0.0561100              1.0000000
P   1   1.00
      0.028055              1.0000000
P   1   1.00
      0.0140275              1.0000000
P   1   1.00
      0.00701375              1.0000000
D   1   1.00
      8.170000D-01           1.0000000
D   1   1.00
      0.2300000              1.0000000
****
O     0
S   9   1.00
      1.172000D+04           7.100000D-04
      1.759000D+03           5.470000D-03
      4.008000D+02           2.783700D-02
      1.137000D+02           1.048000D-01
      3.703000D+01           2.830620D-01
      1.327000D+01           4.487190D-01
      5.025000D+00           2.709520D-01
      1.013000D+00           1.545800D-02
      3.023000D-01          -2.585000D-03
S   9   1.00
      1.172000D+04          -1.600000D-04
      1.759000D+03          -1.263000D-03
      4.008000D+02          -6.267000D-03
      1.137000D+02          -2.571600D-02
      3.703000D+01          -7.092400D-02
      1.327000D+01          -1.654110D-01
      5.025000D+00          -1.169550D-01
      1.013000D+00           5.573680D-01
      3.023000D-01           5.727590D-01
S   1   1.00
      3.023000D-01           1.000000D+00
S   1   1.00
      0.0789600              1.0000000
S   1   1.00
      0.03948              1.0000000
S   1   1.00
      0.01974              1.0000000
S   1   1.00
      0.00987              1.0000000
S   1   1.00
      0.004935              1.0000000
S   1   1.00
      0.0024675              1.0000000
S   1   1.00
      0.00123375              1.0000000
P   4   1.00
      1.770000D+01           4.301800D-02
      3.854000D+00           2.289130D-01
      1.046000D+00           5.087280D-01
      2.753000D-01           4.605310D-01
P   1   1.00
      2.753000D-01           1.000000D+00
P   1   1.00
      0.0685600              1.0000000
P   1   1.00
      0.03428              1.0000000
P   1   1.00
      0.01714              1.0000000
P   1   1.00
      0.00857              1.0000000
D   1   1.00
      1.185000D+00           1.0000000
D   1   1.00
      0.3320000              1.0000000
****
S     0
S   12   1.00
      1.108000D+05           2.476350D-04
      1.661000D+04           1.920260D-03
      3.781000D+03           9.961920D-03
      1.071000D+03           4.029750D-02
      3.498000D+02           1.286040D-01
      1.263000D+02           3.034800D-01
      4.926000D+01           4.214320D-01
      2.016000D+01           2.307810D-01
      5.720000D+00           1.789710D-02
      2.182000D+00          -2.975160D-03
      4.327000D-01           8.495220D-04
      1.570000D-01          -3.679360D-04
S   12   1.00
      1.108000D+05          -6.870390D-05
      1.661000D+04          -5.276810D-04
      3.781000D+03          -2.796710D-03
      1.071000D+03          -1.126510D-02
      3.498000D+02          -3.888340D-02
      1.263000D+02          -9.950250D-02
      4.926000D+01          -1.997400D-01
      2.016000D+01          -1.233600D-01
      5.720000D+00           5.131940D-01
      2.182000D+00           6.071200D-01
      4.327000D-01           3.967530D-02
      1.570000D-01          -9.468640D-03
S   12   1.00
      1.108000D+05           1.990770D-05
      1.661000D+04           1.534830D-04
      3.781000D+03           8.095030D-04
      1.071000D+03           3.289740D-03
      3.498000D+02           1.129670D-02
      1.263000D+02           2.963850D-02
      4.926000D+01           5.998510D-02
      2.016000D+01           4.132480D-02
      5.720000D+00          -2.074740D-01
      2.182000D+00          -3.928890D-01
      4.327000D-01           6.328400D-01
      1.570000D-01           5.569240D-01
S   1   1.00
      1.570000D-01           1.000000D+00
S   1   1.00
      0.0507000              1.0000000
S   1   1.00
      0.02535              1.0000000
S   1   1.00
      0.012675              1.0000000
S   1   1.00
      0.0063375              1.0000000
S   1   1.00
      0.00316875              1.0000000
S   1   1.00
      0.00158438              1.0000000
S   1   1.00
      0.00079219              1.0000000
P   8   1.00
      3.997000D+02           4.475410D-03
      9.419000D+01           3.417080D-02
      2.975000D+01           1.442500D-01
      1.077000D+01           3.539280D-01
      4.119000D+00           4.590850D-01
      1.625000D+00           2.063830D-01
      4.726000D-01           1.021410D-02
      1.407000D-01          -6.031220D-05
P   8   1.00
      3.997000D+02          -1.162510D-03
      9.419000D+01          -8.656640D-03
      2.975000D+01          -3.908860D-02
      1.077000D+01          -9.346250D-02
      4.119000D+00          -1.479940D-01
      1.625000D+00           3.019040D-02
      4.726000D-01           5.615730D-01
      1.407000D-01           5.347760D-01
P   1   1.00
      1.407000D-01           1.000000D+00
P   1   1.00
      0.0399000              1.0000000
P   1   1.00
      0.01995              1.0000000
P   1   1.00
      0.009975              1.0000000
P   1   1.00
      0.0049875              1.0000000
D   1   1.00
      4.790000D-01           1.0000000
D   1   1.00
      0.1520000              1.0000000
****
$end

--------------------------------------------------------------
 ----------------------------------------------------------------
             Standard Nuclear Orientation (Angstroms)
    I     Atom           X                Y                Z
 ----------------------------------------------------------------
    1      C      -0.4853494105    -1.8278372115     0.2449486496
    2      C      -1.8842165843    -1.4520403736    -0.1305742791
    3      C      -2.2127282575    -0.0352183479    -0.3957667234
    4      C      -1.2868066209     0.9401376654    -0.1811692862
    5      C       0.0884501507     0.5735709103     0.2571293596
    6      C       0.4572828641    -0.8660510295     0.3997556317
    7      O      -2.7626261600    -2.3133030407    -0.1898200046
    8      O       0.9140590206     1.4556907574     0.4983266637
    9      O      -3.4542093973     0.2254103746    -0.8881280236
   10      C      -4.4078997055     0.7202498527     0.0752416530
   11      O      -1.6178893123     2.2269019909    -0.4345460606
   12      C      -1.1786155291     3.2796451458     0.4625933526
   13      C      -0.2675926863    -3.3035292433     0.4062356005
   14      C       1.8925492499    -1.1137361826     0.8028685954
   15      C       2.8967092442    -0.8326492407    -0.2887534466
   16      C       3.8734728415     0.0846136531    -0.2910479761
   17      C       4.1454997473     1.0560077918     0.8241314320
   18      C       4.7998547052     0.2041211159    -1.4748510626
   19      H       0.7800106672    -3.5527172715     0.5741587981
   20      H      -0.6248679454    -3.8328450987    -0.4828443681
   21      H      -0.8646465372    -3.6825125420     1.2436606749
   22      H      -5.3191657632     0.9210406477    -0.4888279883
   23      H      -4.0418294566     1.6430755456     0.5381081812
   24      H      -4.5995473607    -0.0431788036     0.8372299302
   25      H      -1.9156934643     4.0743058031     0.3313929126
   26      H      -0.1801022232     3.6233729178     0.1941380972
   27      H      -1.1830721454     2.9257789599     1.4969521862
   28      H       1.9985528301    -2.1524001682     1.1308205614
   29      H       2.1068305109    -0.4823219524     1.6711661494
   30      H       2.7953192249    -1.4684478824    -1.1699343737
   31      H       3.4446167439     0.9599359396     1.6538700103
   32      H       4.0757169396     2.0852074516     0.4491800037
   33      H       5.1669783573     0.9230508658     1.2054496481
   34      H       4.7361765063     1.2079500684    -1.9161506357
   35      H       4.5613006909    -0.5299205820    -2.2496679857
   36      H       5.8450891642     0.0593184080    -1.1698114035
 ----------------------------------------------------------------
 Molecular Point Group                 C1    NOp =  1
 Largest Abelian Subgroup              C1    NOp =  1
 Nuclear Repulsion Energy =        1346.20093543 hartrees
 There are       67 alpha and       67 beta electrons
 Requested basis set is non-standard
 There are 468 shells and 900 basis functions
 Total memory of 1000000 MB is distributed as follows: 
   MEM_STATIC is set to 2000 MB
   QALLOC/CCMAN JOB total memory use is  998000 MB
 Warning: actual memory use might exceed 1000000 MB

 Total QAlloc Memory Limit 1000000 MB
 Mega-Array Size      1956 MB
 MEM_STATIC part      2000 MB

 Requested basis set is rimp2-aug-cc-pVDZ
 There are 558 shells and 1710 basis functions
 A cutoff of  1.0D-14 yielded 108919 shell pairs
 There are    398491 function pairs (    430325 Cartesian)
 Smallest overlap matrix eigenvalue = 2.63E-12
 Linear dependence detected in AO basis
 Tighter screening thresholds may be required for diffuse basis sets
 Use S2THRESH > 14 and THRESH = 14 in case of SCF convergence issues
 Number of orthogonalized atomic orbitals = 767
 Maximum deviation from orthogonality = 4.269E-10

 Scale SEOQF with 1.000000e-02/1.000000e-02/1.000000e-02

 Standard Electronic Orientation quadrupole field applied
 Nucleus-field energy     =     0.0000000057 hartrees
 ================ Generating on-the-fly SAD Guess ================
 Attempting to make child job directory: /scratch/leuven/372/vsc37243/qchem259063//Frg1/
 Attempting to make child job directory: /scratch/leuven/372/vsc37243/qchem259063//Frg2/
 Attempting to make child job directory: /scratch/leuven/372/vsc37243/qchem259063//Frg3/
 Creating input file /scratch/leuven/372/vsc37243/qchem259063/Frg1.input
 using default PutDataFrgm: nothing
 calling putenv with: QCSCRATCH=/scratch/leuven/372/vsc37243/qchem259063/ 
 Spawning Job For Fragment 0
 Done Job For Fragment 0
 calling putenv with: QCSCRATCH=/scratch/leuven/372/vsc37243 
 calling putenv with: QCTHREADS=36 
 Creating input file /scratch/leuven/372/vsc37243/qchem259063/Frg2.input
 using default PutDataFrgm: nothing
 calling putenv with: QCSCRATCH=/scratch/leuven/372/vsc37243/qchem259063/ 
 Spawning Job For Fragment 1
 Done Job For Fragment 1
 calling putenv with: QCSCRATCH=/scratch/leuven/372/vsc37243 
 calling putenv with: QCTHREADS=36 
 Creating input file /scratch/leuven/372/vsc37243/qchem259063/Frg3.input
 using default PutDataFrgm: nothing
 calling putenv with: QCSCRATCH=/scratch/leuven/372/vsc37243/qchem259063/ 
 Spawning Job For Fragment 2
 Done Job For Fragment 2
 calling putenv with: QCSCRATCH=/scratch/leuven/372/vsc37243 
 calling putenv with: QCTHREADS=36 
 Time for running child jobs:  CPU 0.01 s  wall 12.44 s
 ============= Method Specific SAD Guess Constructed =============
 Guess from on-the-fly superposition of atomic densities
 Warning: Energy on first SCF cycle will be non-variational

 -----------------------------------------------------------------------
  General SCF calculation program by
  Eric Jon Sundstrom, Paul Horn, Yuezhi Mao, Dmitri Zuev, Alec White,
  David Stuck, Shaama M.S., Shane Yost, Joonho Lee, David Small,
  Daniel Levine, Susi Lehtola, Hugh Burton, Evgeny Epifanovsky,
  Bang C. Huynh
 -----------------------------------------------------------------------
 Hartree-Fock
 using 36 threads for integral computing
 -------------------------------------------------------
 OpenMP Integral computing Module                
 Release: version 1.0, May 2013, Q-Chem Inc. Pittsburgh 
 -------------------------------------------------------
 A restricted SCF calculation will be
 performed using DIIS
 SCF converges when DIIS error is below 1.0e-10
 ---------------------------------------
  Cycle       Energy         DIIS error
 ---------------------------------------
    1    -846.5187385441      1.98e-02  
    2    -839.7467681395      2.09e-03  
    3    -839.9428067699      1.66e-03  
    4    -840.1003320715      3.04e-04  
    5    -840.1097230914      7.46e-05  
    6    -840.1103351328      2.50e-05  
    7    -840.1104529405      1.30e-05  
    8    -840.1104809360      5.26e-06  
    9    -840.1104865591      1.82e-06  
   10    -840.1104873469      5.91e-07  
   11    -840.1104874450      2.25e-07  
   12    -840.1104874658      1.17e-07  
   13    -840.1104874706      5.80e-08  
   14    -840.1104874721      2.21e-08  
   15    -840.1104874722      7.44e-09  
   16    -840.1104874723      3.61e-09  
   17    -840.1104874723      1.76e-09  
   18    -840.1104874723      9.46e-10  
   19    -840.1104874723      3.18e-10  
   20    -840.1104874723      1.18e-10  
   21    -840.1104874723      5.29e-11  Convergence criterion met
 ---------------------------------------
 SCF time:   CPU 33483.65s  wall 1512.00s 
 SCF   energy =  -840.11048747
 Total energy =  -840.11048747


 ------------------------------------------------------------------------------

   CCMAN2: suite of methods based on coupled cluster
           and equation of motion theories.

   Components:
   * libvmm-1.3-trunk
     by Evgeny Epifanovsky, Ilya Kaliman.
   * libtensor-2.5-trunk
     by Evgeny Epifanovsky, Michael Wormit, Dmitry Zuev, Sam Manzer, 
        Ilya Kaliman.
   * libcc-2.5-trunk
     by Evgeny Epifanovsky, Arik Landau, Tomasz Kus, Kirill Khistyaev, 
        Dmitry Zuev, Prashant Manohar, Xintian Feng, Anna Krylov, 
        Matthew Goldey, Alec White, Thomas Jagau, Kaushik Nanda, 
        Anastasia Gunina, Alexander Kunitsa, Joonho Lee.

   CCMAN original authors:
   Anna I. Krylov, C. David Sherrill, Steven R. Gwaltney,
   Edward F. C. Byrd (2000)
   Sergey V. Levchenko, Lyudmila V. Slipchenko, Tao Wang,
   Ana-Maria C. Cristian (2003)
   Piotr A. Pieniazek, C. Melania Oana, Evgeny Epifanovsky (2007)
   Prashant Manohar (2009)

 ------------------------------------------------------------------------------


 Allocating and initializing 950000MB of RAM (this may take a while)...
 Calculation will run on 36 cores.


 Alpha MOs, Restricted
 -- Occupied --                  
-20.604 -20.591 -20.581 -20.575 -11.367 -11.356 -11.332 -11.320
  1 A     2 A     3 A     4 A     5 A     6 A     7 A     8 A                  
-11.296 -11.292 -11.283 -11.278 -11.248 -11.243 -11.242 -11.226
  9 A    10 A    11 A    12 A    13 A    14 A    15 A    16 A                  
-11.226 -11.223  -1.435  -1.413  -1.397  -1.384  -1.156  -1.103
 17 A    18 A    19 A    20 A    21 A    22 A    23 A    24 A                  
 -1.076  -1.024  -0.974  -0.972  -0.939  -0.931  -0.910  -0.880
 25 A    26 A    27 A    28 A    29 A    30 A    31 A    32 A                  
 -0.809  -0.805  -0.750  -0.712  -0.704  -0.691  -0.665  -0.660
 33 A    34 A    35 A    36 A    37 A    38 A    39 A    40 A                  
 -0.647  -0.632  -0.629  -0.618  -0.614  -0.607  -0.591  -0.589
 41 A    42 A    43 A    44 A    45 A    46 A    47 A    48 A                  
 -0.580  -0.567  -0.561  -0.542  -0.537  -0.532  -0.532  -0.529
 49 A    50 A    51 A    52 A    53 A    54 A    55 A    56 A                  
 -0.519  -0.517  -0.509  -0.502  -0.473  -0.472  -0.436  -0.433
 57 A    58 A    59 A    60 A    61 A    62 A    63 A    64 A                  
 -0.384  -0.349  -0.336
 65 A    66 A    67 A                                                          
 -- Virtual --                   
  0.000   0.001   0.001   0.001   0.002   0.002   0.002   0.002
 68 A    69 A    70 A    71 A    72 A    73 A    74 A    75 A                  
  0.003   0.003   0.004   0.004   0.004   0.006   0.006   0.006
 76 A    77 A    78 A    79 A    80 A    81 A    82 A    83 A                  
  0.006   0.006   0.006   0.007   0.008   0.009   0.009   0.010
 84 A    85 A    86 A    87 A    88 A    89 A    90 A    91 A                  
  0.010   0.011   0.011   0.011   0.012   0.012   0.013   0.013
 92 A    93 A    94 A    95 A    96 A    97 A    98 A    99 A                  
  0.013   0.014   0.014   0.014   0.016   0.017   0.017   0.018
100 A   101 A   102 A   103 A   104 A   105 A   106 A   107 A                  
  0.019   0.019   0.020   0.021   0.021   0.021   0.022   0.022
108 A   109 A   110 A   111 A   112 A   113 A   114 A   115 A                  
  0.023   0.023   0.024   0.024   0.024   0.025   0.025   0.026
116 A   117 A   118 A   119 A   120 A   121 A   122 A   123 A                  
  0.026   0.026   0.027   0.027   0.028   0.028   0.029   0.030
124 A   125 A   126 A   127 A   128 A   129 A   130 A   131 A                  
  0.030   0.031   0.033   0.034   0.035   0.036   0.037   0.038
132 A   133 A   134 A   135 A   136 A   137 A   138 A   139 A                  
  0.039   0.040   0.041   0.042   0.043   0.044   0.044   0.045
140 A   141 A   142 A   143 A   144 A   145 A   146 A   147 A                  
  0.046   0.047   0.047   0.048   0.049   0.049   0.050   0.050
148 A   149 A   150 A   151 A   152 A   153 A   154 A   155 A                  
  0.051   0.052   0.053   0.053   0.054   0.055   0.056   0.057
156 A   157 A   158 A   159 A   160 A   161 A   162 A   163 A                  
  0.057   0.058   0.059   0.060   0.061   0.061   0.062   0.063
164 A   165 A   166 A   167 A   168 A   169 A   170 A   171 A                  
  0.064   0.065   0.065   0.066   0.067   0.068   0.068   0.070
172 A   173 A   174 A   175 A   176 A   177 A   178 A   179 A                  
  0.072   0.073   0.074   0.075   0.077   0.077   0.079   0.081
180 A   181 A   182 A   183 A   184 A   185 A   186 A   187 A                  
  0.082   0.083   0.084   0.085   0.086   0.088   0.089   0.091
188 A   189 A   190 A   191 A   192 A   193 A   194 A   195 A                  
  0.092   0.093   0.094   0.096   0.097   0.102   0.103   0.103
196 A   197 A   198 A   199 A   200 A   201 A   202 A   203 A                  
  0.104   0.105   0.106   0.111   0.111   0.113   0.113   0.114
204 A   205 A   206 A   207 A   208 A   209 A   210 A   211 A                  
  0.117   0.119   0.119   0.120   0.120   0.122   0.123   0.124
212 A   213 A   214 A   215 A   216 A   217 A   218 A   219 A                  
  0.126   0.127   0.127   0.128   0.130   0.130   0.131   0.134
220 A   221 A   222 A   223 A   224 A   225 A   226 A   227 A                  
  0.135   0.136   0.137   0.138   0.139   0.141   0.141   0.143
228 A   229 A   230 A   231 A   232 A   233 A   234 A   235 A                  
  0.145   0.146   0.149   0.151   0.152   0.153   0.156   0.157
236 A   237 A   238 A   239 A   240 A   241 A   242 A   243 A                  
  0.158   0.163   0.166   0.167   0.169   0.171   0.172   0.174
244 A   245 A   246 A   247 A   248 A   249 A   250 A   251 A                  
  0.176   0.177   0.178   0.180   0.183   0.184   0.185   0.187
252 A   253 A   254 A   255 A   256 A   257 A   258 A   259 A                  
  0.188   0.188   0.191   0.193   0.194   0.196   0.197   0.200
260 A   261 A   262 A   263 A   264 A   265 A   266 A   267 A                  
  0.201   0.205   0.207   0.208   0.211   0.214   0.215   0.219
268 A   269 A   270 A   271 A   272 A   273 A   274 A   275 A                  
  0.222   0.224   0.226   0.230   0.231   0.234   0.236   0.239
276 A   277 A   278 A   279 A   280 A   281 A   282 A   283 A                  
  0.240   0.241   0.244   0.246   0.248   0.250   0.255   0.257
284 A   285 A   286 A   287 A   288 A   289 A   290 A   291 A                  
  0.261   0.265   0.266   0.268   0.270   0.277   0.278   0.280
292 A   293 A   294 A   295 A   296 A   297 A   298 A   299 A                  
  0.282   0.285   0.287   0.289   0.293   0.295   0.296   0.298
300 A   301 A   302 A   303 A   304 A   305 A   306 A   307 A                  
  0.301   0.303   0.304   0.306   0.311   0.312   0.318   0.320
308 A   309 A   310 A   311 A   312 A   313 A   314 A   315 A                  
  0.324   0.325   0.326   0.328   0.333   0.337   0.339   0.342
316 A   317 A   318 A   319 A   320 A   321 A   322 A   323 A                  
  0.347   0.349   0.353   0.357   0.361   0.362   0.364   0.366
324 A   325 A   326 A   327 A   328 A   329 A   330 A   331 A                  
  0.371   0.374   0.375   0.382   0.384   0.391   0.395   0.396
332 A   333 A   334 A   335 A   336 A   337 A   338 A   339 A                  
  0.401   0.403   0.405   0.408   0.409   0.415   0.416   0.421
340 A   341 A   342 A   343 A   344 A   345 A   346 A   347 A                  
  0.424   0.426   0.436   0.438   0.446   0.448   0.451   0.454
348 A   349 A   350 A   351 A   352 A   353 A   354 A   355 A                  
  0.458   0.461   0.466   0.467   0.475   0.477   0.481   0.485
356 A   357 A   358 A   359 A   360 A   361 A   362 A   363 A                  
  0.488   0.492   0.492   0.495   0.497   0.504   0.508   0.512
364 A   365 A   366 A   367 A   368 A   369 A   370 A   371 A                  
  0.514   0.518   0.521   0.527   0.531   0.532   0.534   0.538
372 A   373 A   374 A   375 A   376 A   377 A   378 A   379 A                  
  0.539   0.541   0.545   0.553   0.555   0.561   0.562   0.569
380 A   381 A   382 A   383 A   384 A   385 A   386 A   387 A                  
  0.573   0.577   0.580   0.582   0.586   0.592   0.594   0.596
388 A   389 A   390 A   391 A   392 A   393 A   394 A   395 A                  
  0.599   0.604   0.609   0.613   0.621   0.623   0.628   0.634
396 A   397 A   398 A   399 A   400 A   401 A   402 A   403 A                  
  0.637   0.639   0.643   0.646   0.648   0.653   0.656   0.664
404 A   405 A   406 A   407 A   408 A   409 A   410 A   411 A                  
  0.665   0.668   0.672   0.674   0.679   0.683   0.687   0.691
412 A   413 A   414 A   415 A   416 A   417 A   418 A   419 A                  
  0.693   0.697   0.697   0.707   0.707   0.710   0.715   0.716
420 A   421 A   422 A   423 A   424 A   425 A   426 A   427 A                  
  0.720   0.722   0.729   0.732   0.735   0.739   0.743   0.745
428 A   429 A   430 A   431 A   432 A   433 A   434 A   435 A                  
  0.753   0.755   0.758   0.763   0.765   0.766   0.771   0.776
436 A   437 A   438 A   439 A   440 A   441 A   442 A   443 A                  
  0.780   0.781   0.788   0.791   0.795   0.802   0.806   0.811
444 A   445 A   446 A   447 A   448 A   449 A   450 A   451 A                  
  0.813   0.818   0.820   0.824   0.827   0.836   0.838   0.839
452 A   453 A   454 A   455 A   456 A   457 A   458 A   459 A                  
  0.846   0.852   0.856   0.859   0.862   0.871   0.875   0.880
460 A   461 A   462 A   463 A   464 A   465 A   466 A   467 A                  
  0.882   0.886   0.891   0.899   0.906   0.912   0.916   0.920
468 A   469 A   470 A   471 A   472 A   473 A   474 A   475 A                  
  0.923   0.933   0.938   0.940   0.943   0.952   0.956   0.958
476 A   477 A   478 A   479 A   480 A   481 A   482 A   483 A                  
  0.967   0.969   0.983   0.992   0.999   1.007   1.010   1.017
484 A   485 A   486 A   487 A   488 A   489 A   490 A   491 A                  
  1.025   1.033   1.040   1.041   1.048   1.059   1.064   1.071
492 A   493 A   494 A   495 A   496 A   497 A   498 A   499 A                  
  1.081   1.086   1.094   1.099   1.108   1.123   1.127   1.129
500 A   501 A   502 A   503 A   504 A   505 A   506 A   507 A                  
  1.132   1.139   1.147   1.153   1.159   1.169   1.173   1.186
508 A   509 A   510 A   511 A   512 A   513 A   514 A   515 A                  
  1.190   1.203   1.206   1.211   1.224   1.229   1.233   1.245
516 A   517 A   518 A   519 A   520 A   521 A   522 A   523 A                  
  1.249   1.262   1.264   1.266   1.274   1.279   1.282   1.287
524 A   525 A   526 A   527 A   528 A   529 A   530 A   531 A                  
  1.303   1.312   1.317   1.333   1.337   1.349   1.368   1.370
532 A   533 A   534 A   535 A   536 A   537 A   538 A   539 A                  
  1.374   1.382   1.396   1.414   1.426   1.444   1.449   1.455
540 A   541 A   542 A   543 A   544 A   545 A   546 A   547 A                  
  1.460   1.474   1.474   1.481   1.486   1.503   1.518   1.526
548 A   549 A   550 A   551 A   552 A   553 A   554 A   555 A                  
  1.534   1.546   1.557   1.562   1.573   1.579   1.593   1.596
556 A   557 A   558 A   559 A   560 A   561 A   562 A   563 A                  
  1.610   1.618   1.625   1.635   1.640   1.649   1.665   1.677
564 A   565 A   566 A   567 A   568 A   569 A   570 A   571 A                  
  1.691   1.698   1.701   1.715   1.717   1.721   1.728   1.735
572 A   573 A   574 A   575 A   576 A   577 A   578 A   579 A                  
  1.741   1.746   1.761   1.769   1.771   1.778   1.782   1.793
580 A   581 A   582 A   583 A   584 A   585 A   586 A   587 A                  
  1.799   1.809   1.819   1.822   1.827   1.834   1.841   1.847
588 A   589 A   590 A   591 A   592 A   593 A   594 A   595 A                  
  1.857   1.862   1.872   1.875   1.893   1.896   1.906   1.908
596 A   597 A   598 A   599 A   600 A   601 A   602 A   603 A                  
  1.914   1.922   1.939   1.942   1.950   1.954   1.958   1.961
604 A   605 A   606 A   607 A   608 A   609 A   610 A   611 A                  
  1.970   1.981   1.986   1.993   2.001   2.003   2.008   2.024
612 A   613 A   614 A   615 A   616 A   617 A   618 A   619 A                  
  2.033   2.039   2.050   2.055   2.065   2.069   2.080   2.093
620 A   621 A   622 A   623 A   624 A   625 A   626 A   627 A                  
  2.111   2.115   2.120   2.127   2.133   2.145   2.152   2.171
628 A   629 A   630 A   631 A   632 A   633 A   634 A   635 A                  
  2.173   2.185   2.193   2.207   2.209   2.219   2.226   2.233
636 A   637 A   638 A   639 A   640 A   641 A   642 A   643 A                  
  2.239   2.247   2.254   2.269   2.270   2.277   2.284   2.290
644 A   645 A   646 A   647 A   648 A   649 A   650 A   651 A                  
  2.294   2.299   2.307   2.318   2.328   2.334   2.337   2.346
652 A   653 A   654 A   655 A   656 A   657 A   658 A   659 A                  
  2.358   2.361   2.369   2.384   2.391   2.397   2.403   2.414
660 A   661 A   662 A   663 A   664 A   665 A   666 A   667 A                  
  2.421   2.423   2.439   2.453   2.458   2.470   2.480   2.485
668 A   669 A   670 A   671 A   672 A   673 A   674 A   675 A                  
  2.496   2.512   2.520   2.530   2.545   2.548   2.568   2.575
676 A   677 A   678 A   679 A   680 A   681 A   682 A   683 A                  
  2.582   2.590   2.598   2.606   2.624   2.637   2.647   2.651
684 A   685 A   686 A   687 A   688 A   689 A   690 A   691 A                  
  2.663   2.680   2.682   2.689   2.713   2.731   2.738   2.743
692 A   693 A   694 A   695 A   696 A   697 A   698 A   699 A                  
  2.755   2.765   2.772   2.779   2.810   2.825   2.842   2.850
700 A   701 A   702 A   703 A   704 A   705 A   706 A   707 A                  
  2.859   2.866   2.887   2.894   2.921   2.936   2.946   2.947
708 A   709 A   710 A   711 A   712 A   713 A   714 A   715 A                  
  2.961   2.969   2.979   3.001   3.034   3.043   3.062   3.076
716 A   717 A   718 A   719 A   720 A   721 A   722 A   723 A                  
  3.084   3.113   3.131   3.137   3.158   3.170   3.206   3.233
724 A   725 A   726 A   727 A   728 A   729 A   730 A   731 A                  
  3.256   3.294   3.327   3.370   3.390   3.471   3.519   3.530
732 A   733 A   734 A   735 A   736 A   737 A   738 A   739 A                  
  3.579   3.653   3.721   3.730   3.838   3.853   3.862   3.877
740 A   741 A   742 A   743 A   744 A   745 A   746 A   747 A                  
  3.898   3.919   3.926   3.949   3.991   4.016   4.044   4.067
748 A   749 A   750 A   751 A   752 A   753 A   754 A   755 A                  
  4.085   4.099   4.111   4.143   4.163   4.174   4.224   4.246
756 A   757 A   758 A   759 A   760 A   761 A   762 A   763 A                  
  4.259   4.309   4.381   4.967
764 A   765 A   766 A   767 A                                                  

 Beta MOs, Restricted
 -- Occupied --                  
-20.604 -20.591 -20.581 -20.575 -11.367 -11.356 -11.332 -11.320
  1 A     2 A     3 A     4 A     5 A     6 A     7 A     8 A                  
-11.296 -11.292 -11.283 -11.278 -11.248 -11.243 -11.242 -11.226
  9 A    10 A    11 A    12 A    13 A    14 A    15 A    16 A                  
-11.226 -11.223  -1.435  -1.413  -1.397  -1.384  -1.156  -1.103
 17 A    18 A    19 A    20 A    21 A    22 A    23 A    24 A                  
 -1.076  -1.024  -0.974  -0.972  -0.939  -0.931  -0.910  -0.880
 25 A    26 A    27 A    28 A    29 A    30 A    31 A    32 A                  
 -0.809  -0.805  -0.750  -0.712  -0.704  -0.691  -0.665  -0.660
 33 A    34 A    35 A    36 A    37 A    38 A    39 A    40 A                  
 -0.647  -0.632  -0.629  -0.618  -0.614  -0.607  -0.591  -0.589
 41 A    42 A    43 A    44 A    45 A    46 A    47 A    48 A                  
 -0.580  -0.567  -0.561  -0.542  -0.537  -0.532  -0.532  -0.529
 49 A    50 A    51 A    52 A    53 A    54 A    55 A    56 A                  
 -0.519  -0.517  -0.509  -0.502  -0.473  -0.472  -0.436  -0.433
 57 A    58 A    59 A    60 A    61 A    62 A    63 A    64 A                  
 -0.384  -0.349  -0.336
 65 A    66 A    67 A                                                          
 -- Virtual --                   
  0.000   0.001   0.001   0.001   0.002   0.002   0.002   0.002
 68 A    69 A    70 A    71 A    72 A    73 A    74 A    75 A                  
  0.003   0.003   0.004   0.004   0.004   0.006   0.006   0.006
 76 A    77 A    78 A    79 A    80 A    81 A    82 A    83 A                  
  0.006   0.006   0.006   0.007   0.008   0.009   0.009   0.010
 84 A    85 A    86 A    87 A    88 A    89 A    90 A    91 A                  
  0.010   0.011   0.011   0.011   0.012   0.012   0.013   0.013
 92 A    93 A    94 A    95 A    96 A    97 A    98 A    99 A                  
  0.013   0.014   0.014   0.014   0.016   0.017   0.017   0.018
100 A   101 A   102 A   103 A   104 A   105 A   106 A   107 A                  
  0.019   0.019   0.020   0.021   0.021   0.021   0.022   0.022
108 A   109 A   110 A   111 A   112 A   113 A   114 A   115 A                  
  0.023   0.023   0.024   0.024   0.024   0.025   0.025   0.026
116 A   117 A   118 A   119 A   120 A   121 A   122 A   123 A                  
  0.026   0.026   0.027   0.027   0.028   0.028   0.029   0.030
124 A   125 A   126 A   127 A   128 A   129 A   130 A   131 A                  
  0.030   0.031   0.033   0.034   0.035   0.036   0.037   0.038
132 A   133 A   134 A   135 A   136 A   137 A   138 A   139 A                  
  0.039   0.040   0.041   0.042   0.043   0.044   0.044   0.045
140 A   141 A   142 A   143 A   144 A   145 A   146 A   147 A                  
  0.046   0.047   0.047   0.048   0.049   0.049   0.050   0.050
148 A   149 A   150 A   151 A   152 A   153 A   154 A   155 A                  
  0.051   0.052   0.053   0.053   0.054   0.055   0.056   0.057
156 A   157 A   158 A   159 A   160 A   161 A   162 A   163 A                  
  0.057   0.058   0.059   0.060   0.061   0.061   0.062   0.063
164 A   165 A   166 A   167 A   168 A   169 A   170 A   171 A                  
  0.064   0.065   0.065   0.066   0.067   0.068   0.068   0.070
172 A   173 A   174 A   175 A   176 A   177 A   178 A   179 A                  
  0.072   0.073   0.074   0.075   0.077   0.077   0.079   0.081
180 A   181 A   182 A   183 A   184 A   185 A   186 A   187 A                  
  0.082   0.083   0.084   0.085   0.086   0.088   0.089   0.091
188 A   189 A   190 A   191 A   192 A   193 A   194 A   195 A                  
  0.092   0.093   0.094   0.096   0.097   0.102   0.103   0.103
196 A   197 A   198 A   199 A   200 A   201 A   202 A   203 A                  
  0.104   0.105   0.106   0.111   0.111   0.113   0.113   0.114
204 A   205 A   206 A   207 A   208 A   209 A   210 A   211 A                  
  0.117   0.119   0.119   0.120   0.120   0.122   0.123   0.124
212 A   213 A   214 A   215 A   216 A   217 A   218 A   219 A                  
  0.126   0.127   0.127   0.128   0.130   0.130   0.131   0.134
220 A   221 A   222 A   223 A   224 A   225 A   226 A   227 A                  
  0.135   0.136   0.137   0.138   0.139   0.141   0.141   0.143
228 A   229 A   230 A   231 A   232 A   233 A   234 A   235 A                  
  0.145   0.146   0.149   0.151   0.152   0.153   0.156   0.157
236 A   237 A   238 A   239 A   240 A   241 A   242 A   243 A                  
  0.158   0.163   0.166   0.167   0.169   0.171   0.172   0.174
244 A   245 A   246 A   247 A   248 A   249 A   250 A   251 A                  
  0.176   0.177   0.178   0.180   0.183   0.184   0.185   0.187
252 A   253 A   254 A   255 A   256 A   257 A   258 A   259 A                  
  0.188   0.188   0.191   0.193   0.194   0.196   0.197   0.200
260 A   261 A   262 A   263 A   264 A   265 A   266 A   267 A                  
  0.201   0.205   0.207   0.208   0.211   0.214   0.215   0.219
268 A   269 A   270 A   271 A   272 A   273 A   274 A   275 A                  
  0.222   0.224   0.226   0.230   0.231   0.234   0.236   0.239
276 A   277 A   278 A   279 A   280 A   281 A   282 A   283 A                  
  0.240   0.241   0.244   0.246   0.248   0.250   0.255   0.257
284 A   285 A   286 A   287 A   288 A   289 A   290 A   291 A                  
  0.261   0.265   0.266   0.268   0.270   0.277   0.278   0.280
292 A   293 A   294 A   295 A   296 A   297 A   298 A   299 A                  
  0.282   0.285   0.287   0.289   0.293   0.295   0.296   0.298
300 A   301 A   302 A   303 A   304 A   305 A   306 A   307 A                  
  0.301   0.303   0.304   0.306   0.311   0.312   0.318   0.320
308 A   309 A   310 A   311 A   312 A   313 A   314 A   315 A                  
  0.324   0.325   0.326   0.328   0.333   0.337   0.339   0.342
316 A   317 A   318 A   319 A   320 A   321 A   322 A   323 A                  
  0.347   0.349   0.353   0.357   0.361   0.362   0.364   0.366
324 A   325 A   326 A   327 A   328 A   329 A   330 A   331 A                  
  0.371   0.374   0.375   0.382   0.384   0.391   0.395   0.396
332 A   333 A   334 A   335 A   336 A   337 A   338 A   339 A                  
  0.401   0.403   0.405   0.408   0.409   0.415   0.416   0.421
340 A   341 A   342 A   343 A   344 A   345 A   346 A   347 A                  
  0.424   0.426   0.436   0.438   0.446   0.448   0.451   0.454
348 A   349 A   350 A   351 A   352 A   353 A   354 A   355 A                  
  0.458   0.461   0.466   0.467   0.475   0.477   0.481   0.485
356 A   357 A   358 A   359 A   360 A   361 A   362 A   363 A                  
  0.488   0.492   0.492   0.495   0.497   0.504   0.508   0.512
364 A   365 A   366 A   367 A   368 A   369 A   370 A   371 A                  
  0.514   0.518   0.521   0.527   0.531   0.532   0.534   0.538
372 A   373 A   374 A   375 A   376 A   377 A   378 A   379 A                  
  0.539   0.541   0.545   0.553   0.555   0.561   0.562   0.569
380 A   381 A   382 A   383 A   384 A   385 A   386 A   387 A                  
  0.573   0.577   0.580   0.582   0.586   0.592   0.594   0.596
388 A   389 A   390 A   391 A   392 A   393 A   394 A   395 A                  
  0.599   0.604   0.609   0.613   0.621   0.623   0.628   0.634
396 A   397 A   398 A   399 A   400 A   401 A   402 A   403 A                  
  0.637   0.639   0.643   0.646   0.648   0.653   0.656   0.664
404 A   405 A   406 A   407 A   408 A   409 A   410 A   411 A                  
  0.665   0.668   0.672   0.674   0.679   0.683   0.687   0.691
412 A   413 A   414 A   415 A   416 A   417 A   418 A   419 A                  
  0.693   0.697   0.697   0.707   0.707   0.710   0.715   0.716
420 A   421 A   422 A   423 A   424 A   425 A   426 A   427 A                  
  0.720   0.722   0.729   0.732   0.735   0.739   0.743   0.745
428 A   429 A   430 A   431 A   432 A   433 A   434 A   435 A                  
  0.753   0.755   0.758   0.763   0.765   0.766   0.771   0.776
436 A   437 A   438 A   439 A   440 A   441 A   442 A   443 A                  
  0.780   0.781   0.788   0.791   0.795   0.802   0.806   0.811
444 A   445 A   446 A   447 A   448 A   449 A   450 A   451 A                  
  0.813   0.818   0.820   0.824   0.827   0.836   0.838   0.839
452 A   453 A   454 A   455 A   456 A   457 A   458 A   459 A                  
  0.846   0.852   0.856   0.859   0.862   0.871   0.875   0.880
460 A   461 A   462 A   463 A   464 A   465 A   466 A   467 A                  
  0.882   0.886   0.891   0.899   0.906   0.912   0.916   0.920
468 A   469 A   470 A   471 A   472 A   473 A   474 A   475 A                  
  0.923   0.933   0.938   0.940   0.943   0.952   0.956   0.958
476 A   477 A   478 A   479 A   480 A   481 A   482 A   483 A                  
  0.967   0.969   0.983   0.992   0.999   1.007   1.010   1.017
484 A   485 A   486 A   487 A   488 A   489 A   490 A   491 A                  
  1.025   1.033   1.040   1.041   1.048   1.059   1.064   1.071
492 A   493 A   494 A   495 A   496 A   497 A   498 A   499 A                  
  1.081   1.086   1.094   1.099   1.108   1.123   1.127   1.129
500 A   501 A   502 A   503 A   504 A   505 A   506 A   507 A                  
  1.132   1.139   1.147   1.153   1.159   1.169   1.173   1.186
508 A   509 A   510 A   511 A   512 A   513 A   514 A   515 A                  
  1.190   1.203   1.206   1.211   1.224   1.229   1.233   1.245
516 A   517 A   518 A   519 A   520 A   521 A   522 A   523 A                  
  1.249   1.262   1.264   1.266   1.274   1.279   1.282   1.287
524 A   525 A   526 A   527 A   528 A   529 A   530 A   531 A                  
  1.303   1.312   1.317   1.333   1.337   1.349   1.368   1.370
532 A   533 A   534 A   535 A   536 A   537 A   538 A   539 A                  
  1.374   1.382   1.396   1.414   1.426   1.444   1.449   1.455
540 A   541 A   542 A   543 A   544 A   545 A   546 A   547 A                  
  1.460   1.474   1.474   1.481   1.486   1.503   1.518   1.526
548 A   549 A   550 A   551 A   552 A   553 A   554 A   555 A                  
  1.534   1.546   1.557   1.562   1.573   1.579   1.593   1.596
556 A   557 A   558 A   559 A   560 A   561 A   562 A   563 A                  
  1.610   1.618   1.625   1.635   1.640   1.649   1.665   1.677
564 A   565 A   566 A   567 A   568 A   569 A   570 A   571 A                  
  1.691   1.698   1.701   1.715   1.717   1.721   1.728   1.735
572 A   573 A   574 A   575 A   576 A   577 A   578 A   579 A                  
  1.741   1.746   1.761   1.769   1.771   1.778   1.782   1.793
580 A   581 A   582 A   583 A   584 A   585 A   586 A   587 A                  
  1.799   1.809   1.819   1.822   1.827   1.834   1.841   1.847
588 A   589 A   590 A   591 A   592 A   593 A   594 A   595 A                  
  1.857   1.862   1.872   1.875   1.893   1.896   1.906   1.908
596 A   597 A   598 A   599 A   600 A   601 A   602 A   603 A                  
  1.914   1.922   1.939   1.942   1.950   1.954   1.958   1.961
604 A   605 A   606 A   607 A   608 A   609 A   610 A   611 A                  
  1.970   1.981   1.986   1.993   2.001   2.003   2.008   2.024
612 A   613 A   614 A   615 A   616 A   617 A   618 A   619 A                  
  2.033   2.039   2.050   2.055   2.065   2.069   2.080   2.093
620 A   621 A   622 A   623 A   624 A   625 A   626 A   627 A                  
  2.111   2.115   2.120   2.127   2.133   2.145   2.152   2.171
628 A   629 A   630 A   631 A   632 A   633 A   634 A   635 A                  
  2.173   2.185   2.193   2.207   2.209   2.219   2.226   2.233
636 A   637 A   638 A   639 A   640 A   641 A   642 A   643 A                  
  2.239   2.247   2.254   2.269   2.270   2.277   2.284   2.290
644 A   645 A   646 A   647 A   648 A   649 A   650 A   651 A                  
  2.294   2.299   2.307   2.318   2.328   2.334   2.337   2.346
652 A   653 A   654 A   655 A   656 A   657 A   658 A   659 A                  
  2.358   2.361   2.369   2.384   2.391   2.397   2.403   2.414
660 A   661 A   662 A   663 A   664 A   665 A   666 A   667 A                  
  2.421   2.423   2.439   2.453   2.458   2.470   2.480   2.485
668 A   669 A   670 A   671 A   672 A   673 A   674 A   675 A                  
  2.496   2.512   2.520   2.530   2.545   2.548   2.568   2.575
676 A   677 A   678 A   679 A   680 A   681 A   682 A   683 A                  
  2.582   2.590   2.598   2.606   2.624   2.637   2.647   2.651
684 A   685 A   686 A   687 A   688 A   689 A   690 A   691 A                  
  2.663   2.680   2.682   2.689   2.713   2.731   2.738   2.743
692 A   693 A   694 A   695 A   696 A   697 A   698 A   699 A                  
  2.755   2.765   2.772   2.779   2.810   2.825   2.842   2.850
700 A   701 A   702 A   703 A   704 A   705 A   706 A   707 A                  
  2.859   2.866   2.887   2.894   2.921   2.936   2.946   2.947
708 A   709 A   710 A   711 A   712 A   713 A   714 A   715 A                  
  2.961   2.969   2.979   3.001   3.034   3.043   3.062   3.076
716 A   717 A   718 A   719 A   720 A   721 A   722 A   723 A                  
  3.084   3.113   3.131   3.137   3.158   3.170   3.206   3.233
724 A   725 A   726 A   727 A   728 A   729 A   730 A   731 A                  
  3.256   3.294   3.327   3.370   3.390   3.471   3.519   3.530
732 A   733 A   734 A   735 A   736 A   737 A   738 A   739 A                  
  3.579   3.653   3.721   3.730   3.838   3.853   3.862   3.877
740 A   741 A   742 A   743 A   744 A   745 A   746 A   747 A                  
  3.898   3.919   3.926   3.949   3.991   4.016   4.044   4.067
748 A   749 A   750 A   751 A   752 A   753 A   754 A   755 A                  
  4.085   4.099   4.111   4.143   4.163   4.174   4.224   4.246
756 A   757 A   758 A   759 A   760 A   761 A   762 A   763 A                  
  4.259   4.309   4.381   4.967
764 A   765 A   766 A   767 A                                                  

 Occupation and symmetry of molecular orbitals

 Point group: C1 (1 irreducible representation).

                           A     All 
 -------------------------------------
 All molecular orbitals:
  - Alpha                  767   767 
  - Beta                   767   767 
 -------------------------------------
 Alpha orbitals:
  - Frozen occupied        18    18  
  - Active occupied        49    49  
  - Active virtual         700   700 
  - Frozen virtual         0     0   
 -------------------------------------
 Beta orbitals:
  - Frozen occupied        18    18  
  - Active occupied        49    49  
  - Active virtual         700   700 
  - Frozen virtual         0     0   
 -------------------------------------

 Import integrals:   CPU 0.00 s  wall 0.00 s

 Import integrals:   CPU 3759.56 s  wall 108.30 s


 MP2  CPU 2132.30 s  wall 78.21 s
Running a double precision version
           RI-CC2 T amplitudes will be solved using DIIS.

           Start     Size      MaxIter   EConv     TConv     
           3         7         100       1.00e-08  1.00e-07  
 ------------------------------------------------------------------------------
           Energy (a.u.)   Ediff      Tdiff       Comment
 ------------------------------------------------------------------------------
        -842.8557782674                           
     1  -842.8541232458   1.66e-03   1.75e+00     Step took 02.02.
     2  -842.8873525385   3.32e-02   7.60e-02     
     3  -842.8905989210   3.25e-03   5.12e-02     
     4  -842.8958487154   5.25e-03   1.65e-02     Switched to DIIS steps.
     5  -842.8991212153   3.27e-03   1.98e-02     
     6  -842.8995062290   3.85e-04   3.39e-03     
     7  -842.8995324409   2.62e-05   2.59e-03     
     8  -842.8995244613   7.98e-06   8.55e-04     
     9  -842.8995440525   1.96e-05   5.22e-04     
    10  -842.8995560621   1.20e-05   2.56e-04     
    11  -842.8995559489   1.13e-07   1.46e-04     
    12  -842.8995591139   3.16e-06   1.27e-04     
    13  -842.8995568524   2.26e-06   5.44e-05     
    14  -842.8995561311   7.21e-07   2.56e-05     
    15  -842.8995555199   6.11e-07   1.67e-05     
    16  -842.8995551032   4.17e-07   9.35e-06     
    17  -842.8995549909   1.12e-07   6.77e-06     
    18  -842.8995549157   7.52e-08   3.43e-06     
    19  -842.8995548844   3.13e-08   2.06e-06     
    20  -842.8995548813   3.09e-09   1.24e-06     
    21  -842.8995548749   6.41e-09   5.59e-07     
    22  -842.8995548685   6.33e-09   4.68e-07     
    23  -842.8995548664   2.10e-09   2.85e-07     
    24  -842.8995548633   3.08e-09   1.51e-07     
    25  -842.8995548621   1.21e-09   1.07e-07     
    26  -842.8995548623   1.24e-10   5.64e-08     
 ------------------------------------------------------------------------------
        -842.8995548623                           CC2 T converged.

End of double precision
 SCF energy                 = -840.11048747
 MP2 energy                 = -842.85577827
 CC2 correlation energy    =   -2.78906739
 CC2 total energy          = -842.89955486

 CC2  T1^2 = 0.0657  T2^2 = 0.9803  Leading amplitudes:

 Amplitude    Orbitals with energies
 -0.0373       51 (A) A                  ->    101 (A) A                  
              -0.5608                          0.0138                     
 -0.0373       51 (A) B                  ->    101 (A) B                  
              -0.5608                          0.0138                     
 -0.0351       53 (A) A                  ->    101 (A) A                  
              -0.5374                          0.0138                     
 -0.0351       53 (A) B                  ->    101 (A) B                  
              -0.5374                          0.0138                     

 Amplitude    Orbitals with energies
 -0.0556       65 (A) A      65 (A) B    ->    101 (A) A     101 (A) B    
              -0.3844       -0.3844            0.0138        0.0138       
  0.0556       65 (A) A      65 (A) B    ->    101 (A) B     101 (A) A    
              -0.3844       -0.3844            0.0138        0.0138       
  0.0556       65 (A) B      65 (A) A    ->    101 (A) A     101 (A) B    
              -0.3844       -0.3844            0.0138        0.0138       
 -0.0556       65 (A) B      65 (A) A    ->    101 (A) B     101 (A) A    
              -0.3844       -0.3844            0.0138        0.0138       

 Computing CC2 intermediates for later calculations in double precision
 Finished.


 CC2  CPU 128979.59 s  wall 3987.88 s
        Solving for EOMEA-CC2/MP2 A transitions.

Running a double precision version
      RI-EOMEA-CC2/MP2 right amplitudes will be solved using Davidson.
        Amplitudes will be solved using standard  algorithm.
     Hard-coded thresholds: 
     LinDepThresh=1.00e-15  NormThresh=1.00e-06  ReorthogonThresh=1.00e-02

      Roots     MaxVec    MaxIter   Precond   Conv      Shift    
      2         120       60        1         1.00e-08  0.00e+00  
 ------------------------------------------------------------------------------
      Iter ConvRoots NVecs ResNorm^2 Current eigenvalues (eV)
 ------------------------------------------------------------------------------
      0    0      2     1.40e-04   0.0125   0.0305   
      1    0      4     7.99e-05   0.0084   0.0291   
      2    0      6     6.98e-05   0.0018   0.0282   
      3    0      8     2.13e-05   -0.0020   0.0279   
      4    0      10    9.11e-05   -0.0058   0.0274   
      5    0      12    8.46e-03   -0.3572   -0.0018   
      6    0      14    4.61e-03   -1.3968   -0.0043   
      7    0      16    8.62e-04   -1.6511   -0.0048   
      8    0      18    1.04e-04   -1.6944   -0.0049   
      9    0      20    2.04e-05   -1.7000   -0.0050   
      10   0      22    5.96e-06   -1.7008   -0.0050   
      11   0      24    1.67e-06   -1.7011   -0.0050   
      12   0      26    3.22e-07   -1.7013   -0.0050   
      13   0      28    6.14e-08   -1.7013   -0.0050   
      14   1      30    7.73e-09   -1.7013   -0.0050*  
      15   2      31    2.19e-09   -1.7013*  -0.0050*  

     Davidson procedure converged

 EOMEA transition 1/A
 Total energy = -842.96207657 a.u.  Excitation energy = -1.7013 eV.
 R1^2 = 0.9020  R2^2 = 0.0980  Res^2 = 2.14e-09
 Conv-d = yes

 Amplitude    Transitions between orbitals
 -0.8476       infty       ->    101 (A) B                  
 -0.2866       infty       ->    100 (A) B                  
 -0.1764       infty       ->    103 (A) B                  
 -0.1741       infty       ->    98 (A) B                   

              Summary of significant orbitals:

               Number  Type             Irrep      Energy
               98      Vir  Beta       98 (A)      0.0126
               100     Vir  Beta      100 (A)      0.0135
               101     Vir  Beta      101 (A)      0.0138
               103     Vir  Beta      103 (A)      0.0143


 EOMEA transition 2/A
 Total energy = -842.89973918 a.u.  Excitation energy = -0.0050 eV.
 R1^2 = 0.9974  R2^2 = 0.0026  Res^2 = 2.24e-09
 Conv-d = yes

 Amplitude    Transitions between orbitals
 -0.8874       infty       ->    68 (A) B                   
  0.3070       infty       ->    76 (A) B                   
 -0.1616       infty       ->    74 (A) B                   
 -0.1435       infty       ->    86 (A) B                   

              Summary of significant orbitals:

               Number  Type             Irrep      Energy
               68      Vir  Beta       68 (A)      0.0004
               74      Vir  Beta       74 (A)      0.0022
               76      Vir  Beta       76 (A)      0.0026
               86      Vir  Beta       86 (A)      0.0063


Running a double precision version
      RI-EOMEA-CC2/MP2 left amplitudes will be solved using Davidson.
        Amplitudes will be solved using MOM  algorithm.
     Hard-coded thresholds: 
     LinDepThresh=1.00e-15  NormThresh=1.00e-06  ReorthogonThresh=1.00e-02

      Roots     MaxVec    MaxIter   Precond   Conv      Shift    
      2         120       60        1         1.00e-08  0.00e+00  
 ------------------------------------------------------------------------------
      Iter ConvRoots NVecs ResNorm^2 Current eigenvalues (eV)
 ------------------------------------------------------------------------------
      0    0      2     4.69e-03   -1.7013   -0.0050   
      1    0      4     1.93e-03   -1.7013   -0.0050   
      2    0      6     5.69e-05   -1.7013   -0.0050   
      3    0      8     6.85e-06   -1.7013   -0.0050   
      4    0      10    1.26e-06   -1.7013   -0.0050   
      5    1      12    9.51e-08   -1.7013   -0.0050*  
      6    1      13    7.50e-08   -1.7013   -0.0050*  
      7    1      14    9.89e-09   -1.7013   -0.0050*  
      8    2      15    5.93e-09   -1.7013*  -0.0050*  

     Davidson procedure converged

 Excited state properties for  EOMEA-CC2 transition 1/A
 Dipole moment (a.u.): 2.177548 (X 1.690590, Y 1.186211, Z 0.690306)
 R-squared (a.u.): 5480.305339 (XX 3666.974532, YY 1502.175542, ZZ 311.155265)
 Gauge origin (a.u.): (0.000000, 0.000000, 0.000000)
 Angular momentum (a.u.) against gauge origin: 
 (X 0.129551i, Y 0.248768i, Z 0.019789i)
 Traces of the OPDMs: Tr(AA) 67.000000, Tr(BB) 68.000000

 Excited state properties for  EOMEA-CC2 transition 2/A
 Dipole moment (a.u.): 12.126437 (X -2.814264, Y -4.895930, Z -10.731275)
 R-squared (a.u.): 6642.865613 (XX 4019.326799, YY 1882.465857, ZZ 741.072958)
 Gauge origin (a.u.): (0.000000, 0.000000, 0.000000)
 Angular momentum (a.u.) against gauge origin: 
 (X 0.119448i, Y 0.203247i, Z -0.003814i)
 Traces of the OPDMs: Tr(AA) 67.000000, Tr(BB) 68.000000


 EOMEA-CC2  CPU 22520.50 s  wall 1093.55 s

 Start computing the transition properties

 ------------------------------------------------------------------------------
 State A: eomea_cc2/b: 1/A
 State B: cc2: 0/A

       ***    Dyson orbital calculation   *** 

 EOM-EA-CC2 state  1/A -- Reference  transition
 Energy difference = -1.7013 eV.

 Left Dyson orbital norm is 0.9561

Left beta Dyson orbital in the MO basis (canonical Q-Chem's ordering):
0  1.4094e-15  
1  -1.8054e-14 
2  7.0432e-16  
3  -5.7555e-14 
4  1.4656e-15  
5  -8.9438e-16 
6  4.5948e-16  
7  -9.2483e-16 
8  -4.5452e-17 
9  -3.2355e-14 
10 7.0971e-16  
11 -4.0963e-16 
12 5.9852e-16  
13 -1.1252e-14 
14 -8.1714e-16 
15 -1.1975e-15 
16 -1.2608e-14 
17 2.5695e-15  
18 -1.5583e-04 
19 -1.3197e-03 
20 4.2244e-04  
21 1.3185e-03  
22 -4.9306e-05 
23 3.9313e-04  
24 -1.7885e-04 
25 -3.1436e-04 
26 -1.4181e-03 
27 6.0362e-04  
28 5.1688e-04  
29 1.5015e-03  
30 2.4695e-03  
31 3.8402e-04  
32 -2.7598e-03 
33 2.0861e-03  
34 3.6817e-03  
35 -6.1736e-03 
36 1.7728e-03  
37 6.5666e-04  
38 1.5193e-02  
39 2.7704e-03  
40 -6.5319e-03 
41 3.0430e-02  
42 1.1749e-02  
43 -4.8004e-03 
44 -8.6495e-03 
45 -4.9543e-03 
46 1.8440e-02  
47 1.2281e-02  
48 -8.6527e-03 
49 9.2947e-03  
50 -4.9040e-02 
51 2.3805e-03  
52 -4.2701e-02 
53 3.7902e-03  
54 -2.7926e-02 
55 -3.8958e-02 
56 1.9765e-02  
57 -8.6498e-03 
58 4.7095e-03  
59 -1.2504e-02 
60 4.8910e-03  
61 9.4005e-03  
62 1.3591e-02  
63 1.3575e-02  
64 1.6258e-03  
65 7.8132e-03  
66 2.1478e-03  
67 2.4277e-03  
68 -2.1075e-03 
69 -6.0007e-04 
70 1.6547e-03  
71 -5.8476e-04 
72 1.0593e-03  
73 2.4363e-03  
74 -1.8953e-03 
75 -4.6447e-03 
76 -1.6457e-03 
77 6.9786e-03  
78 -3.5697e-03 
79 -6.4672e-03 
80 -8.3399e-03 
81 1.2000e-03  
82 -3.5194e-03 
83 1.0150e-02  
84 1.0815e-03  
85 7.0861e-03  
86 -1.0635e-02 
87 -1.9298e-03 
88 2.3129e-02  
89 -1.5908e-02 
90 2.0897e-02  
91 3.4410e-02  
92 5.5983e-02  
93 1.3304e-02  
94 1.5402e-02  
95 8.4466e-02  
96 5.6001e-02  
97 -1.8270e-01 
98 8.4378e-02  
99 -3.0049e-01 
100-8.8862e-01 
1012.9488e-02  
102-1.8477e-01 
1035.3016e-02  
1041.8352e-02  
1052.2377e-02  
1068.2685e-03  
107-1.8858e-02 
108-2.6263e-02 
1092.1091e-02  
110-5.7133e-03 
1111.8307e-02  
112-1.7241e-02 
1131.5262e-02  
1147.2368e-03  
115-2.4135e-02 
1161.6217e-02  
117-1.5281e-02 
1186.9910e-03  
119-9.0312e-03 
1204.6203e-02  
121-3.5169e-03 
122-2.4714e-02 
1232.3799e-03  
124-4.5732e-03 
125-2.6552e-03 
1266.6084e-03  
1279.9538e-04  
1281.4473e-02  
129-1.3036e-02 
1302.4049e-03  
1312.5284e-03  
1321.5163e-02  
133-3.7532e-03 
134-3.0515e-03 
1357.9773e-03  
136-8.4264e-03 
137-1.7580e-03 
138-4.6372e-03 
1396.3519e-03  
1408.5513e-03  
1411.0423e-02  
142-8.6709e-03 
143-5.5834e-03 
1442.2786e-02  
1457.7201e-03  
146-7.0705e-03 
1471.0194e-02  
1482.2977e-03  
1494.8227e-03  
150-1.2866e-02 
1515.2845e-03  
1523.7810e-03  
153-1.0021e-02 
154-1.3038e-02 
1552.4189e-03  
156-2.5393e-03 
157-5.6729e-03 
1586.2191e-03  
1593.3381e-03  
160-2.3440e-03 
1611.0905e-02  
1621.4864e-03  
163-2.8025e-05 
164-8.5764e-04 
1653.9262e-03  
1663.1998e-03  
1677.8037e-03  
1681.4862e-03  
169-2.0318e-03 
1703.8955e-03  
1712.0685e-03  
1721.4048e-03  
1732.1541e-03  
1741.8947e-03  
1755.6623e-03  
1765.0271e-03  
1775.9343e-04  
1785.0736e-04  
1791.4756e-04  
180-3.8646e-03 
181-8.5708e-03 
1824.1458e-03  
1831.1825e-02  
1848.6253e-05  
185-2.9170e-03 
186-1.4280e-03 
187-2.8189e-03 
1881.2088e-02  
1894.4602e-03  
1903.1946e-03  
1918.3916e-04  
192-5.4122e-03 
193-1.0580e-03 
1947.3114e-04  
195-4.9440e-03 
196-1.9752e-03 
197-8.6025e-03 
198-3.3848e-03 
199-2.1510e-03 
2001.3158e-03  
2017.2360e-03  
202-2.8191e-03 
203-7.1619e-04 
2046.1980e-04  
2058.9341e-05  
2064.6856e-03  
2075.7650e-04  
2082.1767e-03  
209-6.8832e-03 
210-3.0176e-03 
2111.5271e-03  
2126.7170e-03  
2133.3239e-03  
214-2.1965e-03 
215-1.4377e-03 
216-5.1006e-03 
217-7.7360e-03 
2181.7743e-03  
219-1.1237e-03 
2202.9536e-04  
221-4.5699e-03 
2226.0639e-03  
2236.0594e-03  
224-6.1358e-03 
225-3.2648e-03 
226-7.3731e-03 
227-5.0821e-03 
2284.7455e-03  
2294.2927e-03  
2303.0419e-03  
2311.8330e-03  
232-4.2817e-03 
2331.3967e-03  
234-7.4088e-03 
2358.5374e-03  
236-1.0852e-02 
2376.4572e-03  
2384.4915e-03  
2393.3115e-03  
2401.1717e-03  
241-2.3839e-03 
242-7.5775e-04 
2431.2407e-02  
2443.8987e-03  
2455.8142e-03  
246-2.9988e-04 
2477.0593e-03  
248-4.3266e-03 
249-5.9715e-03 
250-6.5389e-03 
251-1.5402e-03 
252-2.2420e-03 
2537.2461e-03  
2543.1928e-03  
2555.2889e-04  
2561.4264e-03  
2574.6883e-03  
258-4.7975e-03 
259-6.6500e-03 
260-1.5503e-02 
261-1.1323e-03 
262-3.6493e-03 
263-2.8131e-03 
264-3.2957e-03 
265-8.8301e-04 
266-5.5517e-03 
267-5.7959e-04 
2682.1867e-04  
269-4.9984e-03 
270-2.2750e-03 
2714.1929e-03  
2725.0181e-04  
273-1.6236e-04 
2741.7591e-03  
275-2.5357e-03 
2763.4179e-04  
277-6.6903e-03 
278-1.2149e-03 
2797.0790e-03  
2803.4271e-03  
2812.4414e-03  
282-4.4266e-03 
283-4.1837e-03 
2845.0337e-04  
285-2.3218e-03 
2866.8048e-04  
2872.4350e-03  
288-4.9329e-03 
2898.5976e-05  
2902.9510e-03  
2916.1241e-03  
2924.0437e-03  
2933.9740e-03  
2941.2300e-03  
2952.6418e-03  
296-1.0285e-03 
2974.2298e-03  
2987.3660e-04  
299-3.4209e-04 
300-7.8050e-04 
301-2.0665e-03 
302-2.8697e-03 
3033.2098e-03  
3041.7992e-03  
3057.5163e-03  
3061.6672e-03  
307-6.8014e-03 
3081.1396e-02  
3091.2867e-02  
3106.9710e-03  
3112.4072e-04  
3121.0872e-02  
313-8.1192e-03 
314-6.9537e-03 
3151.8460e-03  
316-5.8609e-03 
3175.3733e-03  
3185.8919e-03  
3193.3456e-03  
3205.7622e-03  
3218.5995e-04  
3221.2323e-02  
323-1.0463e-02 
3247.7777e-03  
325-2.3782e-03 
3265.1796e-03  
327-4.2266e-04 
3283.3536e-03  
3295.3105e-03  
330-1.7764e-03 
3314.5394e-04  
3323.4947e-03  
333-2.7083e-03 
334-2.6773e-03 
335-5.4005e-04 
336-1.0574e-03 
3371.6683e-04  
338-3.4066e-03 
339-2.9120e-03 
340-3.9827e-03 
341-2.0408e-03 
342-5.3196e-03 
343-7.8395e-05 
3442.4325e-04  
3451.5118e-03  
3461.8366e-03  
3473.0425e-03  
348-2.7503e-03 
349-1.1591e-03 
350-2.6420e-03 
351-1.9631e-03 
3527.0908e-04  
3531.2373e-04  
354-4.6601e-05 
3553.9940e-03  
356-1.3133e-03 
3572.2480e-03  
3582.3836e-03  
3591.0481e-03  
360-1.2250e-03 
3615.4072e-04  
3622.4945e-04  
3632.0057e-04  
364-1.7393e-03 
3654.7302e-04  
3663.8100e-03  
367-4.9237e-03 
368-1.8884e-03 
3691.2941e-03  
370-1.1160e-03 
371-1.5162e-03 
372-1.2005e-03 
3731.6700e-03  
374-1.1231e-04 
375-5.3894e-04 
3762.2497e-05  
3775.9058e-04  
378-1.9265e-03 
3794.0663e-04  
3801.5258e-03  
3814.7467e-04  
382-7.0945e-04 
383-1.2631e-03 
384-7.2148e-04 
385-2.1744e-03 
386-1.4344e-03 
387-9.3122e-04 
3888.3809e-04  
389-8.7656e-04 
3904.1885e-04  
391-6.3072e-04 
392-4.7823e-04 
3932.1222e-03  
394-5.0069e-04 
3951.7513e-03  
396-1.0332e-03 
397-3.5551e-04 
398-1.6944e-03 
3993.9627e-04  
4002.4947e-03  
401-7.9858e-04 
4025.6040e-04  
4032.7228e-04  
404-1.3355e-03 
4053.0286e-05  
4065.2595e-04  
407-5.8783e-04 
4087.7506e-04  
4091.3483e-04  
4101.0268e-03  
4118.4400e-04  
4122.9275e-03  
413-1.2605e-03 
4141.3275e-03  
415-1.5078e-05 
4161.7998e-03  
4171.0138e-03  
418-1.7212e-03 
419-2.3712e-03 
420-1.0202e-03 
4219.3176e-05  
4223.9714e-03  
4231.0708e-04  
424-1.5586e-04 
425-1.1749e-03 
4262.1805e-03  
427-1.1890e-03 
4281.1677e-03  
4292.3620e-03  
430-8.2915e-04 
431-2.9203e-04 
4326.0628e-04  
4331.1685e-04  
4343.3593e-03  
4351.4044e-03  
436-2.5680e-03 
437-2.7008e-03 
438-3.7543e-03 
4391.3183e-03  
4402.3919e-03  
441-4.0837e-04 
442-2.2993e-04 
4432.1039e-04  
4443.3755e-04  
4451.0602e-03  
446-3.5357e-04 
4479.5872e-04  
448-9.7023e-04 
4499.9206e-04  
450-1.2327e-03 
4511.4185e-03  
4521.4028e-03  
4534.4641e-04  
454-2.8893e-04 
4552.3157e-03  
4561.7792e-03  
457-5.6639e-04 
458-7.2606e-04 
459-1.9137e-04 
460-1.2326e-04 
461-1.9041e-03 
462-2.9977e-05 
463-1.6216e-03 
464-9.1289e-04 
465-2.2622e-03 
4661.1255e-03  
467-1.4831e-03 
468-2.0991e-03 
4693.0753e-03  
4701.8628e-03  
471-7.2459e-04 
4721.8393e-03  
473-3.7824e-03 
474-7.4168e-04 
475-3.4362e-03 
4764.3208e-03  
477-1.2578e-03 
478-2.7178e-03 
4793.9939e-03  
480-5.7482e-03 
481-3.8636e-03 
482-3.2553e-03 
483-8.7855e-04 
4846.8100e-03  
4853.0020e-03  
4864.3163e-04  
487-2.9103e-03 
4882.6318e-03  
4891.0868e-04  
490-1.9162e-03 
4911.0077e-03  
492-2.1216e-03 
493-8.2604e-03 
494-3.4880e-03 
4952.1233e-04  
496-4.8548e-03 
4976.3595e-03  
4982.7942e-03  
4992.7537e-03  
500-1.4440e-03 
501-4.5383e-03 
502-8.6057e-04 
5031.9391e-03  
504-8.9826e-04 
505-3.2964e-04 
5062.4671e-03  
507-3.2643e-04 
5081.6522e-03  
5091.1427e-03  
5101.8516e-03  
5111.8388e-03  
5129.4731e-04  
513-1.1400e-03 
514-6.3432e-04 
515-8.1069e-04 
5168.6706e-04  
517-6.5404e-04 
518-2.4956e-03 
5191.6311e-03  
520-1.5858e-03 
5217.2045e-04  
522-4.5850e-04 
523-1.7244e-03 
524-1.4872e-03 
525-9.6504e-04 
526-8.7813e-04 
527-1.0802e-03 
528-1.0030e-03 
529-4.1645e-03 
530-1.0926e-03 
531-6.8303e-04 
532-8.0312e-04 
533-2.8418e-03 
5347.2116e-05  
5352.1551e-03  
5369.7635e-04  
537-7.3082e-04 
5389.9062e-04  
5391.2907e-03  
5402.2055e-03  
541-4.6685e-04 
542-4.1349e-04 
543-7.4472e-04 
544-1.7054e-04 
5452.2010e-04  
546-4.7000e-04 
5477.2390e-04  
548-4.4139e-04 
5491.6214e-03  
550-3.9759e-04 
551-5.3666e-04 
5521.4946e-04  
5533.8489e-05  
5544.3051e-05  
5551.6626e-04  
5563.4463e-04  
5572.3835e-04  
5581.0950e-05  
559-1.5653e-04 
5601.7414e-05  
561-2.0553e-04 
5624.6093e-04  
563-5.3428e-04 
5642.6645e-04  
565-1.1297e-03 
566-7.6944e-05 
5671.4142e-04  
5681.1142e-04  
569-2.5757e-04 
5704.7944e-04  
571-7.7556e-04 
572-8.3487e-04 
573-5.3006e-05 
574-1.2002e-03 
575-1.6539e-04 
576-2.2202e-04 
5775.0627e-04  
5782.7583e-04  
5792.9574e-04  
5808.3100e-04  
5817.4366e-05  
582-4.1095e-04 
5834.2611e-04  
584-3.1022e-04 
585-6.8352e-04 
5861.6883e-03  
5871.1632e-04  
5881.1855e-03  
589-4.5694e-04 
5906.8710e-04  
591-2.1108e-03 
592-3.0982e-04 
593-1.3560e-03 
5941.0193e-03  
5956.2637e-04  
596-2.1049e-03 
5979.6137e-04  
598-8.9782e-04 
599-1.7378e-03 
600-2.1127e-04 
6019.5437e-04  
6021.2525e-03  
603-2.1187e-04 
6041.0004e-03  
6051.4672e-03  
6063.9007e-04  
607-1.5579e-06 
608-5.4813e-04 
609-1.2392e-04 
6103.0543e-04  
6111.5626e-04  
612-7.7431e-04 
6131.1666e-03  
6141.0693e-03  
6157.7043e-04  
616-7.8571e-05 
617-2.9132e-04 
618-9.9363e-04 
6193.2375e-04  
6201.8754e-05  
6211.4217e-04  
6226.7415e-05  
623-4.2476e-04 
6245.5546e-06  
6255.8938e-04  
626-3.5619e-04 
6271.2745e-03  
628-4.1983e-04 
629-1.7967e-03 
6306.2922e-04  
6315.4569e-04  
6326.4967e-05  
633-1.1211e-04 
634-3.8147e-04 
6355.3571e-04  
636-5.6635e-04 
6373.3529e-04  
6389.9340e-05  
6397.4934e-04  
640-8.1755e-04 
6412.7421e-04  
6427.7370e-05  
6432.4422e-04  
6444.7774e-04  
645-3.5591e-04 
6462.0649e-04  
647-5.2127e-05 
6483.6752e-04  
6492.4841e-05  
6508.4602e-04  
6512.3425e-04  
652-6.7978e-05 
6531.1335e-04  
654-1.3006e-04 
6557.5246e-04  
6563.9661e-05  
6572.9693e-04  
6583.4020e-04  
659-2.9615e-06 
660-7.4946e-04 
661-6.8866e-04 
6622.6187e-04  
6633.2817e-04  
6646.8152e-05  
665-1.9866e-04 
666-2.8737e-04 
667-2.5120e-04 
6681.0645e-04  
6697.0084e-05  
670-3.3908e-04 
6713.5420e-04  
6722.2386e-04  
6733.6933e-04  
674-1.0942e-04 
6753.6825e-04  
676-2.6763e-04 
677-6.8970e-05 
6782.0960e-04  
6794.4101e-06  
6806.9320e-05  
681-8.9790e-05 
6824.3339e-04  
683-7.1966e-05 
6845.2679e-05  
6857.6315e-06  
6861.4806e-04  
687-1.8184e-05 
6881.1108e-04  
6894.1848e-05  
6901.9410e-04  
691-1.3525e-04 
692-2.1464e-04 
6934.9815e-05  
694-4.8106e-05 
6953.5973e-04  
696-1.7927e-04 
6973.1752e-04  
698-2.6573e-04 
699-2.3030e-04 
7003.5251e-04  
701-2.9293e-04 
7022.2110e-04  
703-1.1890e-04 
7043.4898e-04  
7051.2496e-04  
7064.1275e-05  
7077.8173e-05  
7081.7131e-04  
709-6.1156e-05 
7102.1728e-04  
7113.0262e-05  
7128.6805e-05  
713-6.3043e-05 
7141.1151e-04  
715-6.4075e-05 
7161.8901e-04  
7179.7485e-05  
718-5.0987e-05 
719-4.3180e-05 
720-1.1812e-04 
7219.8000e-05  
7222.0059e-05  
7231.0440e-04  
724-1.7357e-05 
7252.4825e-05  
726-5.1124e-06 
7272.0214e-06  
728-4.8258e-05 
729-1.8988e-04 
7301.0429e-04  
7313.5508e-05  
732-1.7671e-05 
733-2.2983e-05 
734-2.8182e-05 
735-7.9101e-05 
7364.1278e-05  
737-9.4644e-06 
738-3.4658e-04 
739-1.5255e-04 
7401.2916e-04  
741-1.8016e-04 
742-1.0166e-04 
7435.8239e-05  
744-1.5542e-06 
7459.8508e-05  
7468.2849e-05  
747-2.5903e-05 
748-9.9628e-05 
749-3.0401e-05 
750-7.9983e-05 
751-7.2564e-05 
752-1.1020e-05 
753-7.9862e-05 
7541.2052e-04  
7559.9995e-05  
756-1.1844e-04 
7571.9936e-04  
758-5.6637e-05 
759-8.2929e-05 
760-8.1343e-05 
761-1.4867e-05 
7621.8051e-04  
7631.8053e-05  
7641.1784e-04  
765-1.6547e-05 
766-6.6291e-05 

Decomposition over AOs for the left beta Dyson orbital:
4.00197507e-05
-5.42108069e-03
3.64967698e-03
-5.39489455e-02
4.36167432e-02
1.53980100e-02
-8.74259254e-03
4.38606823e-03
-3.35454821e-02
-6.52572261e-02
7.23416985e-02
-2.53455156e-02
-2.96961372e-01
2.94948077e-02
-3.22350457e-02
-2.69871392e-02
7.75190851e-02
-4.22038659e-02
-1.66094697e-01
-1.50423847e-01
-3.36433811e-02
-4.62793147e-02
-2.75038403e-02
4.76664396e-02
-1.90638663e-01
-1.28876189e-01
1.71429661e-02
5.25405620e-02
1.46964323e-03
4.61905913e-03
7.93689100e-03
1.80726108e-02
-4.62972817e-03
2.07401920e-02
3.39392164e-02
-2.62490696e-03
1.12924523e-03
4.24977914e-02
-1.72608447e-04
-7.21386832e-03
-7.67422139e-03
1.20335532e-01
-1.18678748e-01
4.26242054e-02
3.07624670e-02
-2.87911071e-02
5.62326599e-02
-6.68279912e-02
6.82501134e-02
-5.84374774e-02
-3.01122745e-01
3.84777993e-02
2.61948014e-02
-5.05625394e-02
1.02028955e-02
-8.16432979e-02
-2.90230213e-02
7.85883254e-02
-8.82764901e-02
3.06654104e-01
1.43795805e-01
-2.00192985e-01
-3.75122173e-01
2.15369794e-02
6.32634475e-02
6.07301780e-03
3.85900996e-03
-2.27762575e-02
-4.65121287e-03
-2.59363038e-02
9.54181408e-03
3.44885628e-02
-1.60198885e-02
-8.16615576e-03
-3.69878282e-02
1.80254951e-02
-5.94903111e-04
6.19332140e-03
1.20439831e-01
-5.13246142e-02
-9.30223373e-02
5.61883084e-03
2.57142062e-02
-4.44564341e-02
7.52367521e-02
7.83748832e-02
7.09793019e-02
-7.12734568e-03
-2.33941854e-01
2.71697255e-02
5.30056497e-02
-1.49540105e-02
-7.96209307e-02
-2.31796023e-02
-2.38086337e-01
-1.13764085e-01
1.28751825e-01
-2.41843749e-02
1.74643192e-01
6.66574517e-02
4.26341003e-02
7.98071760e-02
-1.77713602e-01
-1.30654185e-01
-2.99231763e-03
1.99161614e-02
-2.09851524e-03
2.42406579e-03
-2.08823835e-03
3.64280793e-02
1.32490388e-02
2.03033515e-04
4.21086543e-03
-3.79977811e-02
2.73259454e-04
5.64958725e-03
-1.04348571e-01
1.34244578e-01
-2.73791103e-02
3.72841306e-02
-6.90449623e-03
5.46523823e-02
-5.11869270e-03
2.41811028e-02
-7.61984144e-02
5.50582223e-03
2.28710848e-01
5.21523451e-02
2.18520387e-02
3.28447083e-02
-4.98736299e-02
-8.03390837e-02
1.84393571e-01
-2.82491604e-02
4.35819667e-02
1.76860582e-01
1.27778911e-01
1.20556709e-01
-3.55174296e-02
1.84063017e-01
1.13924883e-04
-1.19323535e-02
2.87707018e-03
8.61658334e-04
1.19773605e-02
1.77571132e-02
-7.46130569e-03
-4.17075132e-02
4.37961010e-04
6.07570128e-03
-3.67994218e-03
-3.84653404e-02
-1.60600645e-04
-4.45707120e-03
2.97504971e-02
1.39535771e-01
5.46701908e-02
3.24490899e-02
-1.51390092e-02
6.10448621e-02
1.49759013e-02
-2.26386304e-02
-9.44412216e-02
-5.83507234e-03
3.48372296e-01
1.25481419e-02
1.67713958e-02
7.14989284e-02
-7.71246947e-02
-1.38167299e-01
9.06205955e-02
1.37296003e-01
-3.25643805e-02
-5.46377216e-01
-4.29717877e-02
1.36031855e-01
3.19087563e-01
-1.49354504e-02
1.64571838e-01
7.75493613e-02
5.99997813e-03
-2.66061812e-02
-1.19197848e-02
-2.08595151e-02
7.35108278e-03
-2.99580688e-02
-4.11302264e-02
-1.30877768e-02
-2.16370415e-02
2.23304696e-03
1.00094240e-04
6.17069659e-03
-2.25057341e-02
-2.57046528e-01
8.22346893e-02
-6.72035963e-03
-2.05356535e-02
-7.29124691e-03
-4.25074048e-02
-2.50235271e-02
-6.47241478e-02
2.30510765e-02
2.58415495e-01
-2.09625630e-02
1.00090764e-02
3.11022838e-02
-2.47910954e-02
-1.37631059e-01
1.73928559e-01
6.46161261e-03
9.90210380e-02
-1.06157107e-01
-1.13544480e-01
1.13641650e-01
2.48389778e-01
-7.40669429e-02
6.50306658e-02
1.58250815e-01
-5.95810501e-03
2.27837433e-02
-4.21387770e-06
5.01841331e-03
-2.45545731e-03
-1.27004826e-02
-1.66211450e-03
1.00860738e-02
3.87760535e-02
4.62950542e-02
2.14508325e-04
5.12361027e-03
-2.53452483e-03
-2.92854950e-02
-5.42984563e-02
4.53459715e-03
-9.10470844e-03
-2.76349520e-02
1.76229829e-03
[...]
1.01446534e-04
1.69703941e-04
3.38326559e-05
-5.36734875e-05
1.92880654e-04
3.03787212e-04
4.97551173e-04
-3.85674636e-05
-8.01636253e-05
-1.29241608e-04
-6.16103782e-03
-1.52652768e-03
4.12704490e-03
4.86667358e-02
-1.10028686e-01
-6.96548873e-02
2.95824087e-01
-3.94685331e-01
7.67372956e-01
-6.41653240e-03
2.81502543e-03
7.22835115e-03
1.65887779e-04
-1.44296920e-04
5.49767671e-04
9.06325513e-04
-6.96246933e-04
5.25532509e-03
5.07870273e-02
-1.08981017e-02
-3.38630296e-02
5.73831851e-02
-4.91988685e-03
-5.52976276e-02
-5.03443775e-02
7.35640234e-02
2.56480648e-01
-1.87556733e-05
4.77766085e-05
2.21513249e-06
-9.13713470e-05
9.30010888e-05
2.98275801e-06
-1.74135680e-04
-1.94025665e-04
2.24125887e-04
1.22764342e-04
-4.10479180e-04
-1.73642056e-02
-4.33802344e-03
1.55006578e-02
3.20085936e-01
2.14072483e-01
-1.12491575e-01
-8.32217707e-01
-1.39087946e+00
8.29771113e-01
6.26813398e-03
-5.88380923e-03
-1.33377330e-02
1.87262274e-03
-8.77213689e-04
4.46085491e-04
3.13238101e-02
-1.60236358e-02
-1.07179170e-02
3.21749347e-03
-4.50551264e-03
-2.79798735e-02
-1.88179782e-01
4.83303833e-02
-1.55838044e-01
1.91188170e-01
-4.44544119e-02
1.08812674e-01
-2.46296980e-04
1.75124691e-04
1.74236630e-04
-8.68695538e-05
1.95234948e-04
1.11912938e-04
-4.39681232e-04
-6.42743697e-04
3.83648788e-04
-2.16875832e-04
-1.45804259e-04
-5.84314558e-03
-2.34270061e-03
3.37078104e-03
2.34839091e-01
-1.14932953e-01
-2.76330489e-01
3.58480367e-01
-9.54729313e-01
-3.92042440e+00
2.79475732e-03
8.37455148e-03
6.27293034e-03
4.83352286e-04
-3.93722680e-05
3.78127137e-04
4.88284905e-03
-8.39388833e-03
5.62106149e-03
1.14673771e-02
-2.51136918e-02
-8.07636214e-03
-4.07025457e-02
-7.88725549e-02
-1.06903079e-01
3.14502336e-01
-1.05320812e-01
1.41806938e-01
-1.05876225e-05
-2.93681147e-04
6.58897590e-05
-8.76372008e-05
1.57538906e-04
-2.40138213e-04
-6.68619743e-04
-6.23634486e-05
-1.59691927e-04
2.35328103e-04
-6.46254005e-04
-2.87452740e-02
-1.04256155e-02
-7.57675853e-02
-2.61048140e-01
-1.47436661e-01
3.33909112e-01
4.29489934e-01
2.66997383e+00
2.53934892e+00
-1.38570408e-04
-6.32217862e-03
-1.47608218e-02
-2.18237011e-03
-2.71553492e-04
1.71136143e-04
-1.20258486e-02
1.08891413e-03
2.50369274e-03
-8.48211941e-02
7.37965751e-03
-3.65247984e-02
1.07859385e-01
1.01649020e-02
-6.08347814e-02
1.54289227e-01
-6.19824044e-02
-1.74304989e-02
3.31798889e-04
1.37752145e-04
5.01413891e-05
-5.56145736e-05
-3.91797507e-05
-8.57687553e-05
-4.68239589e-05
1.00055524e-03
1.52880880e-04
7.58060644e-05
-4.69292095e-04
-2.48344952e-02
3.03400244e-03
-1.19405001e-01
-1.14147838e-01
-1.52828268e-01
2.12198662e-01
3.42752475e-01
-1.49267857e+00
-1.65149069e-01
-1.43224008e-03
4.41144786e-03
-5.44185785e-03
1.35507257e-03
1.20872000e-02
-1.17068377e-03
-1.15038541e-02
-1.29555331e-02
-5.34199904e-03
7.24945429e-02
2.83559189e-03
-9.46507174e-04
-1.63623665e-01
-7.82843001e-02
1.88520072e-03
1.60873847e-01
6.95735740e-02
3.14347927e-02
-1.05815004e-04
5.24216599e-04
3.68270872e-04
3.54110229e-05
-2.62929016e-04
4.33828722e-04
-5.53524834e-04
-3.97942212e-04
-4.27831537e-04
-2.04889205e-03
-3.85650971e-04
-2.20778101e-02
-7.60153338e-03
-2.54670834e-01
-6.00443531e-02
7.30425942e-02
3.98798313e-02
-1.08169890e-01
-6.82468174e-01
1.21759618e+00
2.42030393e-03
3.02798304e-03
-1.40995632e-02
-3.14155874e-05
1.69678256e-03
-4.97095046e-03
6.77693528e-02
4.06682855e-02
-8.97065452e-03
-2.10921729e-01
1.59731417e-01
-5.38993742e-02
-3.62564961e-01
-1.03595120e-01
-2.12755010e-01
-9.87887028e-02
4.16755256e-04
6.82050453e-01
3.87822642e-05
-3.90377852e-04
3.10667616e-04
2.57206128e-04
1.23988603e-05
-2.03821918e-03
2.09207373e-04
1.71263207e-03
-6.96994786e-04
1.36147343e-03
-2.56025618e-04
-8.24420253e-03
-4.31196202e-03
1.43144122e-01
1.29637419e-01
1.44197523e-01
-8.11549691e-02
-4.52597124e-01
1.35763527e-01
-2.21634537e+00
-6.84190046e-03
5.49861211e-03
1.07449099e-02
3.55110100e-04
9.87231808e-04
-1.31750791e-03
4.42075545e-02
6.37100820e-02
3.80729429e-02
1.26366795e-01
7.59284643e-02
2.44240544e-01
-1.91502947e-01
-1.30768366e-01
2.29374328e-01
2.43032320e-01
-4.16880900e-01
-4.22779358e-01
-3.74218590e-04
-1.00817417e-04
-5.48878895e-04
6.98207911e-04
2.11622339e-04
-2.05057469e-03
2.78834438e-03
1.56421022e-03
2.03943296e-03
-1.73731212e-03
-6.21317166e-05
3.55250161e-03
6.32300421e-03
-6.73555592e-02
-8.93117999e-02
1.55463893e-01
3.74547643e-02
2.05037269e-01
-1.17637777e-01
-1.65317175e+00
5.29682938e-03
1.93608094e-03
3.82792494e-03
-4.03682689e-04
-2.40474170e-03
-1.06161831e-03
1.36745791e-01
7.17066189e-02
-7.54544784e-02
-4.39378455e-02
5.91072173e-02
-7.14182159e-02
-7.97542984e-02
-6.34759929e-02
1.72455339e-01
4.79593782e-01
2.08284750e-01
-3.57817178e-01
-7.32294257e-04
-9.64111389e-04
-2.21145000e-04
-9.71920358e-05
4.23248131e-04
-4.33530274e-04
-1.11313874e-03
-9.54472747e-04
2.01991758e-03
-1.11618334e-03
-4.09379928e-04
-2.47805984e-02
-5.57170730e-03
-3.93782343e-02
-3.04043824e-01
-2.10910160e-01
5.56225276e-01
9.13982102e-01
5.80824988e-01
1.92576061e+00
-1.74922456e-03
-3.39304833e-03
-6.52929388e-03
-2.19459848e-04
-6.61920726e-04
1.39355480e-03
-1.20806691e-02
-8.61991460e-03
1.48218813e-02
-2.00083814e-02
3.79189922e-02
3.65102159e-02
-2.76206313e-01
-5.22258898e-02
-1.42614555e-01
-2.14291792e-01
-1.76912768e-02
5.21521210e-02
-1.27273056e-04
8.75218885e-05
8.22366094e-05
-3.22906530e-05
-3.84146077e-04
-1.07990883e-04
-1.02707986e-04
-2.58701946e-04
-8.80376308e-05
4.44009307e-04
-2.38414997e-04
-1.47657788e-02
-4.61760724e-03
-1.60694881e-01
-3.22185120e-01
-1.25285208e-01
3.35209744e-01
1.16383190e-01
1.99551758e-01
7.47322349e-01
-6.99184120e-03
-2.42165984e-03
5.08024582e-03
-6.38195670e-04
-6.00979954e-04
1.77360772e-03
1.38150067e-02
-7.09462536e-03
-3.70829374e-02
-1.61880409e-02
1.12266126e-02
4.47865737e-02
-6.03325385e-02
5.84903855e-02
-1.70805293e-02
-3.37557317e-01
1.79605492e-02
2.71300546e-02
-1.87265131e-04
3.58487865e-05
2.49517254e-04
1.21516426e-04
-2.62788978e-04
-4.72669823e-04
-5.94975969e-04
4.78099822e-04
3.26272587e-04
6.51053518e-05
-3.29891490e-03
5.03198896e-03
2.71757937e-02
-1.22338781e-01
3.16703044e-01
-3.96933777e-01
9.77541593e-04
-2.98678478e-04
1.17443898e-04
1.85296265e-03
-2.10375799e-03
5.09400013e-04
3.77043005e-03
1.25599826e-02
1.74295556e-02
1.61720811e-03
-2.42553514e-01
2.89566963e-01
-1.86626168e-04
-2.88557222e-04
-7.87735275e-04
8.58374882e-04
3.00094700e-04
3.87388656e-04
-4.37358754e-03
1.00003831e-02
1.90927397e-02
2.06856375e-02
-2.17931130e-01
4.56639792e-01
-5.95734532e-04
-1.79464795e-04
9.04767818e-04
3.78112156e-04
9.76221930e-04
1.17764737e-03
1.01273218e-03
6.37944178e-03
4.52588539e-02
-4.09979163e-01
-3.39075293e-01
1.09704391e+00
-3.63549576e-04
2.59098953e-05
-5.12668936e-04
-1.19733345e-04
1.05884913e-04
-1.65462760e-04
-4.12562041e-03
1.81890218e-03
2.87771974e-02
-4.75967222e-02
1.31299518e-02
3.57133602e-01
4.51994135e-04
7.91212460e-04
3.77527704e-04
7.70615257e-04
1.63825220e-03
2.27378789e-03
-3.61323816e-03
8.14064405e-04
-4.79715773e-03
-6.35179580e-02
-5.20756468e-01
4.34574474e-01
-4.34396868e-06
-6.91180522e-04
5.44025352e-04
-3.66335835e-05
-1.36859383e-03
2.54234176e-03
-2.79797222e-03
5.09766529e-03
3.85396934e-02
1.01585519e-01
3.88702460e-01
-3.95324987e-01
-7.53549630e-04
7.47883559e-04
-2.87613314e-04
-1.32993430e-03
1.60209494e-03
-5.29629516e-04
1.14849161e-03
1.06815674e-02
1.53273739e-01
1.77471296e-02
-4.48684940e-01
1.74494558e-01
8.25098156e-04
3.02278620e-04
-4.82705571e-04
-8.60620692e-05
4.51140507e-04
-1.13373187e-04
-4.36840248e-03
4.19248194e-03
9.68673919e-02
2.49043514e-01
-4.92636995e-02
5.41634499e-01
-8.34069491e-05
-7.04964545e-04
1.38179928e-03
-5.63421377e-04
-2.60895557e-03
3.88067762e-03
-2.43242646e-03
1.33231493e-02
1.36423737e-01
1.95641768e-02
-1.98851888e-01
-1.66866177e-01
2.62555107e-04
-1.01578128e-03
2.51055876e-04
-4.72000712e-05
-1.32575752e-03
5.63227304e-04
-4.61001759e-03
7.54365784e-03
-3.40077292e-02
2.46126895e-01
-2.30862542e-01
2.27826232e-01
1.89796049e-04
6.88139322e-04
9.91231873e-04
7.98411206e-04
5.75247091e-04
1.93720419e-03
-7.85996849e-03
-6.19219202e-03
1.66869796e-01
1.64527551e-01
-5.12709906e-01
-2.79034733e-01
-3.51750320e-04
-4.60950953e-04
-4.81582275e-04
-1.19000303e-03
-1.90481899e-03
-1.40952788e-03
-2.58064339e-03
9.65697367e-04
-8.93658654e-03
-5.41227379e-02
3.58212708e-01
-3.64196862e-01
-6.57362196e-04
-8.77512801e-05
8.86676508e-04
-1.19101182e-03
-3.68918529e-04
2.57583090e-03
6.32907415e-04
7.03523630e-03
6.57736076e-02
1.01381475e-02
3.71315514e-01
-8.29456895e-01
-8.54786042e-05
8.80479735e-04
-4.00958943e-04
-1.65901480e-04
1.26446118e-03
-2.43691283e-04
-4.25887568e-03
1.41348113e-03
5.35617962e-02
2.99294078e-01
4.90217003e-01
7.56287739e-02
9.43470819e-04
-2.04203956e-04
3.32249473e-04
1.91241015e-03
-8.39699706e-04
1.09671705e-03
-1.61778321e-03
6.53662294e-03
3.56780652e-02
9.74656385e-02
-4.07850869e-01
2.15663481e-01
-2.30836235e-04
6.87455283e-04
-1.73742689e-04
-9.85740952e-05
8.60869502e-04
1.84191881e-04
9.73132742e-04
7.27108736e-03
3.46293888e-02
3.00861299e-01
1.05352694e-01
-5.87967958e-01
-2.14063202e-04
-4.30236778e-04
-3.59638305e-04
-1.85453933e-04
-5.87122404e-04
2.99661096e-05
-4.16158933e-03
4.71746567e-03
5.62699442e-02
1.76016987e-01
2.66779847e-01
8.36805771e-02
6.17240536e-04
-1.86177395e-04
3.84430881e-04
8.20774808e-04
-2.52311221e-04
5.08876789e-04
   *****

     End transition


 All requested transition properties have been computed


 Transition Properties  CPU 74.19 s  wall 24.08 s
 Total ccman2 time:   CPU 162318.39 s  wall 5486.63 s


 --------------------------------------------------------------

                    Orbital Energies (a.u.)
 --------------------------------------------------------------

 Alpha MOs
 -- Occupied --
-20.6045 -20.5910 -20.5812 -20.5746 -11.3666 -11.3563 -11.3321 -11.3199
-11.2957 -11.2917 -11.2825 -11.2782 -11.2475 -11.2426 -11.2425 -11.2263
-11.2260 -11.2228  -1.4345  -1.4130  -1.3972  -1.3843  -1.1562  -1.1035
 -1.0756  -1.0239  -0.9737  -0.9717  -0.9392  -0.9308  -0.9099  -0.8803
 -0.8092  -0.8052  -0.7498  -0.7121  -0.7038  -0.6913  -0.6651  -0.6604
 -0.6467  -0.6325  -0.6294  -0.6180  -0.6140  -0.6068  -0.5915  -0.5889
 -0.5800  -0.5668  -0.5608  -0.5423  -0.5374  -0.5320  -0.5317  -0.5292
 -0.5191  -0.5175  -0.5093  -0.5017  -0.4728  -0.4721  -0.4359  -0.4331
 -0.3844  -0.3492  -0.3356
 -- Virtual --
  0.0004   0.0011   0.0012   0.0013   0.0020   0.0020   0.0022   0.0022
  0.0026   0.0032   0.0038   0.0040   0.0043   0.0055   0.0056   0.0057
  0.0060   0.0061   0.0063   0.0069   0.0085   0.0091   0.0092   0.0098
  0.0100   0.0107   0.0109   0.0110   0.0121   0.0124   0.0126   0.0132
  0.0135   0.0138   0.0139   0.0143   0.0159   0.0165   0.0171   0.0182
  0.0188   0.0194   0.0204   0.0207   0.0208   0.0211   0.0216   0.0221
  0.0229   0.0233   0.0239   0.0241   0.0243   0.0246   0.0251   0.0257
  0.0260   0.0264   0.0270   0.0274   0.0279   0.0281   0.0286   0.0300
  0.0304   0.0307   0.0327   0.0338   0.0350   0.0362   0.0372   0.0382
  0.0391   0.0404   0.0413   0.0418   0.0426   0.0436   0.0439   0.0451
  0.0459   0.0466   0.0472   0.0483   0.0491   0.0494   0.0500   0.0501
  0.0507   0.0518   0.0525   0.0533   0.0544   0.0554   0.0560   0.0567
  0.0573   0.0581   0.0594   0.0599   0.0607   0.0614   0.0624   0.0631
  0.0638   0.0647   0.0653   0.0660   0.0671   0.0681   0.0684   0.0705
  0.0719   0.0728   0.0740   0.0750   0.0768   0.0773   0.0786   0.0806
  0.0822   0.0835   0.0845   0.0847   0.0863   0.0878   0.0892   0.0908
  0.0920   0.0930   0.0935   0.0962   0.0971   0.1015   0.1026   0.1035
  0.1039   0.1052   0.1062   0.1106   0.1113   0.1134   0.1135   0.1137
  0.1169   0.1186   0.1191   0.1196   0.1202   0.1224   0.1233   0.1241
  0.1256   0.1271   0.1275   0.1282   0.1300   0.1302   0.1307   0.1337
  0.1351   0.1358   0.1375   0.1382   0.1394   0.1406   0.1415   0.1429
  0.1453   0.1464   0.1488   0.1508   0.1518   0.1529   0.1560   0.1570
  0.1580   0.1628   0.1663   0.1673   0.1686   0.1709   0.1718   0.1738
  0.1759   0.1768   0.1778   0.1802   0.1828   0.1843   0.1850   0.1868
  0.1881   0.1883   0.1910   0.1930   0.1940   0.1960   0.1975   0.2001
  0.2014   0.2048   0.2067   0.2076   0.2111   0.2145   0.2150   0.2187
  0.2218   0.2244   0.2261   0.2296   0.2310   0.2343   0.2357   0.2385
  0.2398   0.2407   0.2444   0.2465   0.2477   0.2505   0.2549   0.2573
  0.2615   0.2648   0.2660   0.2678   0.2702   0.2774   0.2782   0.2798
  0.2824   0.2846   0.2868   0.2894   0.2930   0.2952   0.2958   0.2977
  0.3014   0.3031   0.3038   0.3064   0.3111   0.3122   0.3182   0.3204
  0.3237   0.3248   0.3260   0.3283   0.3328   0.3368   0.3386   0.3416
  0.3471   0.3490   0.3526   0.3569   0.3606   0.3618   0.3642   0.3663
  0.3705   0.3736   0.3749   0.3818   0.3840   0.3912   0.3950   0.3955
  0.4009   0.4028   0.4052   0.4078   0.4094   0.4151   0.4158   0.4211
  0.4238   0.4258   0.4361   0.4378   0.4456   0.4481   0.4514   0.4538
  0.4583   0.4607   0.4660   0.4674   0.4749   0.4767   0.4814   0.4851
  0.4884   0.4921   0.4923   0.4948   0.4969   0.5044   0.5085   0.5119
  0.5141   0.5183   0.5211   0.5272   0.5307   0.5315   0.5335   0.5382
  0.5394   0.5405   0.5449   0.5526   0.5546   0.5606   0.5624   0.5693
  0.5729   0.5765   0.5801   0.5824   0.5863   0.5917   0.5943   0.5964
  0.5989   0.6037   0.6088   0.6129   0.6206   0.6234   0.6278   0.6337
  0.6369   0.6393   0.6430   0.6457   0.6476   0.6527   0.6565   0.6635
  0.6651   0.6680   0.6721   0.6743   0.6793   0.6829   0.6871   0.6905
  0.6933   0.6967   0.6973   0.7067   0.7074   0.7099   0.7149   0.7157
  0.7201   0.7219   0.7294   0.7321   0.7347   0.7390   0.7429   0.7448
  0.7533   0.7555   0.7578   0.7634   0.7650   0.7662   0.7711   0.7755
  0.7798   0.7814   0.7879   0.7914   0.7953   0.8015   0.8064   0.8111
  0.8131   0.8175   0.8200   0.8241   0.8274   0.8357   0.8376   0.8391
  0.8459   0.8523   0.8559   0.8594   0.8618   0.8706   0.8749   0.8799
  0.8820   0.8863   0.8910   0.8986   0.9059   0.9124   0.9155   0.9199
  0.9230   0.9328   0.9378   0.9396   0.9431   0.9519   0.9562   0.9576
  0.9673   0.9693   0.9833   0.9918   0.9988   1.0072   1.0101   1.0165
  1.0247   1.0329   1.0402   1.0405   1.0481   1.0589   1.0645   1.0709
  1.0808   1.0860   1.0940   1.0993   1.1076   1.1226   1.1271   1.1287
  1.1324   1.1392   1.1472   1.1529   1.1592   1.1693   1.1729   1.1857
  1.1904   1.2034   1.2057   1.2114   1.2236   1.2292   1.2333   1.2449
  1.2490   1.2624   1.2636   1.2659   1.2736   1.2792   1.2822   1.2873
  1.3027   1.3117   1.3167   1.3326   1.3368   1.3489   1.3682   1.3705
  1.3744   1.3822   1.3962   1.4141   1.4263   1.4438   1.4492   1.4546
  1.4596   1.4736   1.4743   1.4807   1.4859   1.5026   1.5176   1.5264
  1.5344   1.5464   1.5571   1.5619   1.5731   1.5791   1.5930   1.5956
  1.6099   1.6180   1.6251   1.6354   1.6398   1.6487   1.6648   1.6771
  1.6907   1.6976   1.7010   1.7145   1.7173   1.7205   1.7282   1.7346
  1.7409   1.7461   1.7609   1.7689   1.7705   1.7784   1.7823   1.7931
  1.7989   1.8087   1.8191   1.8222   1.8266   1.8339   1.8407   1.8473
  1.8566   1.8622   1.8723   1.8745   1.8933   1.8960   1.9060   1.9079
  1.9138   1.9222   1.9392   1.9420   1.9497   1.9539   1.9582   1.9607
  1.9703   1.9811   1.9864   1.9928   2.0010   2.0030   2.0082   2.0240
  2.0333   2.0394   2.0502   2.0548   2.0650   2.0694   2.0802   2.0932
  2.1107   2.1147   2.1199   2.1274   2.1328   2.1453   2.1523   2.1712
  2.1726   2.1845   2.1934   2.2074   2.2092   2.2192   2.2261   2.2327
  2.2388   2.2472   2.2539   2.2686   2.2699   2.2772   2.2843   2.2897
  2.2937   2.2988   2.3075   2.3184   2.3283   2.3338   2.3372   2.3463
  2.3579   2.3610   2.3686   2.3836   2.3905   2.3968   2.4029   2.4137
  2.4211   2.4230   2.4393   2.4534   2.4581   2.4698   2.4803   2.4851
  2.4964   2.5118   2.5201   2.5300   2.5453   2.5479   2.5681   2.5750
  2.5821   2.5895   2.5976   2.6063   2.6244   2.6374   2.6468   2.6511
  2.6631   2.6804   2.6823   2.6893   2.7133   2.7306   2.7378   2.7426
  2.7553   2.7649   2.7723   2.7794   2.8100   2.8250   2.8416   2.8500
  2.8588   2.8661   2.8873   2.8940   2.9214   2.9361   2.9462   2.9470
  2.9615   2.9693   2.9791   3.0007   3.0345   3.0428   3.0620   3.0762
  3.0837   3.1128   3.1307   3.1372   3.1579   3.1697   3.2065   3.2330
  3.2562   3.2942   3.3267   3.3704   3.3901   3.4705   3.5194   3.5298
  3.5789   3.6535   3.7206   3.7302   3.8376   3.8526   3.8622   3.8772
  3.8980   3.9192   3.9259   3.9491   3.9905   4.0163   4.0442   4.0669
  4.0851   4.0988   4.1110   4.1434   4.1634   4.1737   4.2241   4.2464
  4.2586   4.3087   4.3807   4.9665
 --------------------------------------------------------------

          Ground-State Mulliken Net Atomic Charges

     Atom                 Charge (a.u.)
  ----------------------------------------
      1 C                     0.731941
      2 C                    -0.203530
      3 C                     1.096064
      4 C                     1.277271
      5 C                    -0.345905
      6 C                     1.207323
      7 O                    -1.217101
      8 O                    -0.815847
      9 O                    -1.164668
     10 C                     0.948679
     11 O                    -1.437950
     12 C                     0.948794
     13 C                     0.549278
     14 C                     1.302401
     15 C                     1.193155
     16 C                    -0.875812
     17 C                     0.971491
     18 C                     0.754273
     19 H                    -0.157085
     20 H                     0.086453
     21 H                     0.058365
     22 H                    -0.443860
     23 H                    -0.305274
     24 H                    -0.197687
     25 H                    -0.558040
     26 H                    -0.186174
     27 H                    -0.222342
     28 H                    -0.257755
     29 H                    -0.260946
     30 H                    -1.090954
     31 H                    -0.435326
     32 H                     0.018124
     33 H                    -0.306744
     34 H                    -0.080675
     35 H                    -0.366035
     36 H                    -0.213904
  ----------------------------------------
  Sum of atomic charges =     0.000000

 -----------------------------------------------------------------
                    Cartesian Multipole Moments
 -----------------------------------------------------------------
    Charge (ESU x 10^10)
                -0.0000
    Dipole Moment (Debye)
         X       1.4270      Y       1.1768      Z       2.3872
       Tot       3.0199
    Quadrupole Moments (Debye-Ang)
        XX    -109.0509     XY     -10.9548     YY    -105.5391
        XZ      -7.5414     YZ       1.4473     ZZ    -109.0115
    Octopole Moments (Debye-Ang^2)
       XXX     -29.2447    XXY      50.8702    XYY       1.6675
       YYY      36.8241    XXZ      17.1489    XYZ      -3.9059
       YYZ       8.5060    XZZ      -2.9722    YZZ      -0.2382
       ZZZ       0.0943
    Hexadecapole Moments (Debye-Ang^3)
      XXXX   -4691.2808   XXXY    -100.8387   XXYY   -1219.8321
      XYYY     -82.9070   YYYY   -1853.1156   XXXZ     -43.1829
      XXYZ      -3.1279   XYYZ     -19.7885   YYYZ       9.3370
      XXZZ    -912.1661   XYZZ       4.0472   YYZZ    -396.4862
      XZZZ      10.8971   YZZZ       7.5973   ZZZZ    -430.7973
 -----------------------------------------------------------------
 Total job time:  7265.64s(wall), 196106.69s(cpu) 
 Thu May 15 18:13:45 2025

        *************************************************************
        *                                                           *
        *  Thank you very much for using Q-Chem.  Have a nice day.  *
        *                                                           *
        *************************************************************


