                  Welcome to Q-Chem
     A Quantum Leap Into The Future Of Chemistry


 Q-Chem 6.2 (devel), Q-Chem, Inc., Pleasanton, CA (2024)

 E. Epifanovsky,  A. T. B. Gilbert,  Xintian Feng,  Joonho Lee,  Yuezhi Mao,  
 N. Mardirossian,  P. Pokhilko,  A. White,  M. Wormit,  M. P. Coons,  
 A. L. Dempwolff,  Zhengting Gan,  D. Hait,  P. R. Horn,  L. D. Jacobson,  
 I. Kaliman,  J. Kussmann,  A. W. Lange,  Ka Un Lao,  D. S. Levine,  Jie Liu,  
 S. C. McKenzie,  A. F. Morrison,  K. D. Nanda,  F. Plasser,  D. R. Rehn,  
 M. L. Vidal,  Zhi-Qiang You,  Ying Zhu,  Huseyin Aksu,  B. Alam,  
 B. Albrecht,  A. Aldossary,  E. Alguire,  J. H. Andersen,  
 J. E. Arias-Martinez,  V. Athavale,  D. Barton,  K. Begam,  A. Behn,  
 N. Bellonzi,  Y. A. Bernard,  E. J. Berquist,  H. Burton,  A. Carreras,  
 K. Carter-Fenk,  Mathew Chow,  Romit Chakraborty,  Chandrima Chakravarty,  
 Junhan Chen,  A. D. Chien,  K. D. Closser,  V. Cofer-Shabica,  L. Cunha,  
 S. Dasgupta,  Jia Deng,  Joseph Dickinson,  M. de Wergifosse,  
 M. Diedenhofen,  Hainam Do,  Wenjie Dou,  S. Ehlert,  Po-Tung Fang,  
 S. Fatehi,  Qingguo Feng,  Jonathan Fetherolf,  T. Friedhoff,  
 Thomas Froitzheim,  Sarai Folkestad,  B. Ganoe,  J. Gayvert,  Qinghui Ge,  
 G. Gidofalvi,  M. Gimferrer,  M. Goldey,  Montgomery Gray,  J. Gomes,  
 C. Gonzalez-Espinoza,  S. Gulania,  A. Gunina,  J. A. Gyamfi,  
 M. W. D. Hanson-Heine,  P. H. P. Harbach,  A. W. Hauser,  M. F. Herbst,  
 M. Hernandez Vera,  M. Hodecker,  Z. C. Holden,  S. Houck,  Xunkun Huang,  
 Kerwin Hui,  B. C. Huynh,  K. Ikeda,  M. Ivanov,  Nayanthara K. Jayadev,  
 Hyunjun Ji,  Zuxin Jin,  Hanjie Jiang,  Subrata Jana,  B. Kaduk,  
 S. Kaehler,  R. Kang,  K. Khistyaev,  Jaehoon Kim,  Yongbin Kim,  
 P. Klunzinger,  Z. Koczor-Benda,  Joong Hoon Koh,  D. Kosenkov,  
 Saikiran Kotaru,  L. Koulias,  T. Kowalczyk,  C. M. Krauter,  K. Kue,  
 A. Kunitsa,  T. Kus,  A. Landau,  K. V. Lawler,  D. Lefrancois,  S. Lehtola,  
 Rain Li,  Shaozhi Li,  Tao E. Li,  Yi-Pei Li,  Jiashu Liang,  M. Liebenthal,  
 Hung-Hsuan Lin,  You-Sheng Lin,  Fenglai Liu,  Kuan-Yu Liu,  Xiao Liu,  
 M. Loipersberger,  A. Luenser,  C. Malbon,  Aniket Mandal,  Manisha,  
 A. Manjanath,  P. Manohar,  E. Mansoor,  S. F. Manzer,  Shan-Ping Mao,  
 A. V. Marenich,  T. Markovich,  S. Mason,  F. Matz,  S. A. Maurer,  
 Samuel May,  Alexandra McIsaac,  P. F. McLaughlin,  M. F. S. J. Menger,  
 J.-M. Mewes,  S. A. Mewes,  P. Morgante,  Mohammad Mostafanejad,  
 Madhubani Mukherjee,  J. W. Mullinax,  Quyen Nguyen,  Avik Kumar Ojha,  
 K. J. Oosterbaan,  Eno Paenurk,  Xiaoliang Pan,  G. Paran,  V. Parravicini,  
 Alexander C. Paul,  Suranjan K. Paul,  F. Pavosevic,  Zheng Pei,  S. Prager,  
 E. I. Proynov,  E. Ramos,  B. Rana,  A. E. Rask,  A. Rettig,  R. M. Richard,  
 F. Rob,  E. Rossomme,  T. Scheele,  M. Scheurer,  M. Schneider,  
 P. E. Schneider,  Tim K. Schramm,  N. Sergueev,  S. M. Sharada,  
 Hengyuan Shen,  W. Skomorowski,  D. W. Small,  C. J. Stein,  
 Alistair J. Sterling,  Yingli Su,  Yu-Chuan Su,  E. J. Sundstrom,  
 J. Talbot,  Zhen Tao,  J. Thirman,  Hung-Yi Tsai,  T. Tsuchimochi,  
 N. M. Tubman,  C. Utku,  S. P. Veccham,  O. Vydrov,  Rahel Weiss,  
 J. Wenzel,  Jonathan Wong,  J. Witte,  H. Wu,  Yanze Wu,  A. Yamada,  
 Chou-Hsun Yang,  Kun Yao,  S. Yeganeh,  S. R. Yost,  Qi Yu,  A. Zech,  
 F. Zeller,  Chongxiao Zhao,  Igor Ying Zhang,  Xing Zhang,  Yu Zhang,  
 D. Zuev,  A. Aspuru-Guzik,  A. T. Bell,  N. A. Besley,  K. B. Bravaya,  
 B. R. Brooks,  D. Casanova,  Jeng-Da Chai,  Hsing-Ta Chen,  S. Coriani,  
 C. J. Cramer,  A. E. DePrince, III,  R. A. DiStasio Jr.,  A. Dreuw,  
 B. D. Dunietz,  T. R. Furlani,  W. A. Goddard III,  S. Grimme,  
 S. Hammes-Schiffer,  T. Head-Gordon,  W. J. Hehre,  Chao-Ping Hsu,  
 T.-C. Jagau,  Yousung Jung,  A. Klamt,  Jing Kong,  D. S. Lambrecht,  
 Xiangyuan Li,  WanZhen Liang,  N. J. Mayhall,  C. W. McCurdy,  J. B. Neaton,  
 T. Neudecker,  C. Ochsenfeld,  J. A. Parkhill,  R. Peverati,  
 V. A. Rassolov,  Haisheng Ren,  Yihan Shao,  L. V. Slipchenko,  
 R. P. Steele,  J. E. Subotnik,  A. J. W. Thom,  A. Tkatchenko,  
 D. G. Truhlar,  T. Van Voorhis,  Fan Wang,  T. A. Wesolowski,  K. B. Whaley,  
 H. L. Woodcock III,  P. M. Zimmerman,  S. Faraji,  P. M. W. Gill,  
 M. Head-Gordon,  J. M. Herbert,  A. I. Krylov

 Contributors to earlier versions of Q-Chem not listed above: 
 R. D. Adamson,  B. Austin,  R. Baer,  J. Baker,  G. J. O. Beran,  
 K. Brandhorst,  S. T. Brown,  E. F. C. Byrd,  Arup K. Chakraborty,  
 G. K. L. Chan,  Chun-Min Chang,  Yunqing Chen,  C.-L. Cheng,  
 Siu Hung Chien,  D. M. Chipman,  D. L. Crittenden,  H. Dachsel,  
 R. J. Doerksen,  A. D. Dutoi,  R. G. Edgar,  J. Fosso-Tande,  
 L. Fusti-Molnar,  D. Ghosh,  A. Ghysels,  A. Golubeva-Zadorozhnaya,  
 J. Gonthier,  M. S. Gordon,  S. R. Gwaltney,  G. Hawkins,  J. E. Herr,  
 A. Heyden,  S. Hirata,  E. G. Hohenstein,  G. Kedziora,  F. J. Keil,  
 C. Kelley,  Jihan Kim,  R. A. King,  R. Z. Khaliullin,  P. P. Korambath,  
 W. Kurlancheek,  A. Laurent,  A. M. Lee,  M. S. Lee,  S. V. Levchenko,  
 Ching Yeh Lin,  D. Liotard,  E. Livshits,  R. C. Lochan,  I. Lotan,  
 L. A. Martinez-Martinez,  P. E. Maslen,  N. Nair,  D. P. O'Neill,  
 D. Neuhauser,  E. Neuscamman,  C. M. Oana,  R. Olivares-Amaya,  R. Olson,  
 T. M. Perrine,  B. Peters,  P. A. Pieniazek,  A. Prociuk,  Y. M. Rhee,  
 J. Ritchie,  M. A. Rohrdanz,  E. Rosta,  N. J. Russ,  H. F. Schaefer III,  
 M. W. Schmidt,  N. E. Schultz,  S. Sharma,  N. Shenvi,  C. D. Sherrill,  
 A. C. Simmonett,  A. Sodt,  T. Stein,  D. Stuck,  K. S. Thanthiriwatte,  
 V. Vanovschi,  L. Vogt,  Tao Wang,  A. Warshel,  M. A. Watson,  
 C. F. Williams,  Q. Wu,  X. Xu,  Jun Yang,  W. Zhang,  Yan Zhao

   Please cite Q-Chem as follows:
  "Software for the frontiers of quantum chemistry:
   An overview of developments in the Q-Chem 5 package"
   J. Chem. Phys. 155, 084801 (2021)
   https://doi.org/10.1063/5.0055522 (open access)

 Q-Chem 6.2.1 for Intel X86 EM64T Linux

 Parts of Q-Chem use Armadillo 9.900.5 (Nocturnal Misbehaviour).
 http://arma.sourceforge.net/

 Q-Chem begins on Sat May 17 14:26:20 2025  

 Host: k28l03
0

     Scratch files written to /scratch/leuven/372/vsc37243/qchem1750457//
 Processing $rem in /data/leuven/372/vsc37243/qchem-dyson-EA-NoL/config/preferences:
 Processing $rem in /user/leuven/372/vsc37243/.qchemrc:

 Checking the input file for inconsistencies... 	...done.

--------------------------------------------------------------
User input:
--------------------------------------------------------------
$molecule
0 1
C 0.000000 0.000000 0.000000
C -0.749722 -1.292168 0.019461
C -0.005494 -2.581851 -0.000000
C 1.350480 -2.581588 -0.008315
C 2.101878 -1.293216 -0.000000
C 1.356221 0.000000 0.035758
O -1.979381 -1.299746 0.075388
O 3.330726 -1.313819 -0.037908
O -0.741512 -3.723321 -0.057270
C -1.261633 -4.194676 1.203873
O 2.086485 -3.722328 -0.072208
C 2.620895 -4.188207 1.184057
C -0.879262 1.216449 -0.014173
C 2.224542 1.236047 0.031247
C 2.963846 1.474882 1.325927
C 4.288616 1.462800 1.528707
C 5.320155 1.187888 0.470381
C 4.849577 1.730151 2.902417
H -0.311316 2.141575 0.081754
H -1.611376 1.156873 0.797326
H -1.458834 1.249314 -0.943998
H -0.438911 -4.444640 1.884030
H -1.834070 -5.091584 0.966462
H -1.914312 -3.440039 1.654157
H 1.806594 -4.449176 1.869839
H 3.266745 -3.425448 1.631366
H 3.204015 -5.077121 0.942715
H 1.606809 2.109347 -0.199401
H 2.944678 1.128393 -0.786486
H 2.320559 1.677034 2.184205
H 4.887878 1.021510 -0.516817
H 5.896566 0.291651 0.732571
H 6.031975 2.022069 0.408646
H 5.444926 0.874317 3.248602
H 4.058224 1.919331 3.633687
H 5.523937 2.597038 2.888554
$end
!dih1 100 dih2 -100
$end

$rem
   CCMAN2                       1
   MEM_TOTAL                    1000000
   CC_MEMORY			950000
   MEM_STATIC                   2000
   METHOD                       cc2
   BASIS                        gen
   PURECART                     11
   AUX_BASIS                    rimp2-aug-cc-pVDZ
   N_FROZEN_CORE                fc
   EA_STATES                    [2]
   SCF_CONVERGENCE              10
   MAX_SCF_CYCLES               200
   CC_CONVERGENCE               8
   EOM_DAVIDSON_CONVERGENCE     8
   CC_TRANS_PROP		TRUE
   CC_DO_DYSON			TRUE
   CC_EOM_PROP			TRUE
   !PRINT_ORBITALS               TRUE
$end

$basis
H     0
S   4   1.00
      1.301000D+01           1.968500D-02
      1.962000D+00           1.379770D-01
      4.446000D-01           4.781480D-01
      1.220000D-01           5.012400D-01
S   1   1.00
      1.220000D-01           1.000000D+00
S   1   1.00
      0.0297400              1.0000000
S   1   1.00
      0.01487              1.0000000
S   1   1.00
      0.007435              1.0000000
S   1   1.00
      0.0037175              1.0000000
P   1   1.00
      7.270000D-01           1.0000000
P   1   1.00
      0.1410000              1.0000000
****
C     0
S   9   1.00
      6.665000D+03           6.920000D-04
      1.000000D+03           5.329000D-03
      2.280000D+02           2.707700D-02
      6.471000D+01           1.017180D-01
      2.106000D+01           2.747400D-01
      7.495000D+00           4.485640D-01
      2.797000D+00           2.850740D-01
      5.215000D-01           1.520400D-02
      1.596000D-01          -3.191000D-03
S   9   1.00
      6.665000D+03          -1.460000D-04
      1.000000D+03          -1.154000D-03
      2.280000D+02          -5.725000D-03
      6.471000D+01          -2.331200D-02
      2.106000D+01          -6.395500D-02
      7.495000D+00          -1.499810D-01
      2.797000D+00          -1.272620D-01
      5.215000D-01           5.445290D-01
      1.596000D-01           5.804960D-01
S   1   1.00
      1.596000D-01           1.000000D+00
S   1   1.00
      0.0469000              1.0000000
S   1   1.00
      0.02345              1.0000000
S   1   1.00
      0.011725              1.0000000
S   1   1.00
      0.0058625              1.0000000
S   1   1.00
      0.00293125              1.0000000
S   1   1.00
      0.00146562              1.0000000
S   1   1.00
      0.00073281              1.0000000
P   4   1.00
      9.439000D+00           3.810900D-02
      2.002000D+00           2.094800D-01
      5.456000D-01           5.085570D-01
      1.517000D-01           4.688420D-01
P   1   1.00
      1.517000D-01           1.000000D+00
P   1   1.00
      0.0404100              1.0000000
P   1   1.00
      0.020205              1.0000000
P   1   1.00
      0.0101025              1.0000000
P   1   1.00
      0.00505125              1.0000000
D   1   1.00
      5.500000D-01           1.0000000
D   1   1.00
      0.1510000              1.0000000
****
N     0
S   9   1.00
      9.046000D+03           7.000000D-04
      1.357000D+03           5.389000D-03
      3.093000D+02           2.740600D-02
      8.773000D+01           1.032070D-01
      2.856000D+01           2.787230D-01
      1.021000D+01           4.485400D-01
      3.838000D+00           2.782380D-01
      7.466000D-01           1.544000D-02
      2.248000D-01          -2.864000D-03
S   9   1.00
      9.046000D+03          -1.530000D-04
      1.357000D+03          -1.208000D-03
      3.093000D+02          -5.992000D-03
      8.773000D+01          -2.454400D-02
      2.856000D+01          -6.745900D-02
      1.021000D+01          -1.580780D-01
      3.838000D+00          -1.218310D-01
      7.466000D-01           5.490030D-01
      2.248000D-01           5.788150D-01
S   1   1.00
      2.248000D-01           1.000000D+00
S   1   1.00
      0.0612400              1.0000000
S   1   1.00
      0.03062              1.0000000
S   1   1.00
      0.01531              1.0000000
S   1   1.00
      0.007655              1.0000000
S   1   1.00
      0.0038275              1.0000000
S   1   1.00
      0.00191375              1.0000000
S   1   1.00
      0.000956875              1.0000000
P   4   1.00
      1.355000D+01           3.991900D-02
      2.917000D+00           2.171690D-01
      7.973000D-01           5.103190D-01
      2.185000D-01           4.622140D-01
P   1   1.00
      2.185000D-01           1.000000D+00
P   1   1.00
      0.0561100              1.0000000
P   1   1.00
      0.028055              1.0000000
P   1   1.00
      0.0140275              1.0000000
P   1   1.00
      0.00701375              1.0000000
D   1   1.00
      8.170000D-01           1.0000000
D   1   1.00
      0.2300000              1.0000000
****
O     0
S   9   1.00
      1.172000D+04           7.100000D-04
      1.759000D+03           5.470000D-03
      4.008000D+02           2.783700D-02
      1.137000D+02           1.048000D-01
      3.703000D+01           2.830620D-01
      1.327000D+01           4.487190D-01
      5.025000D+00           2.709520D-01
      1.013000D+00           1.545800D-02
      3.023000D-01          -2.585000D-03
S   9   1.00
      1.172000D+04          -1.600000D-04
      1.759000D+03          -1.263000D-03
      4.008000D+02          -6.267000D-03
      1.137000D+02          -2.571600D-02
      3.703000D+01          -7.092400D-02
      1.327000D+01          -1.654110D-01
      5.025000D+00          -1.169550D-01
      1.013000D+00           5.573680D-01
      3.023000D-01           5.727590D-01
S   1   1.00
      3.023000D-01           1.000000D+00
S   1   1.00
      0.0789600              1.0000000
S   1   1.00
      0.03948              1.0000000
S   1   1.00
      0.01974              1.0000000
S   1   1.00
      0.00987              1.0000000
S   1   1.00
      0.004935              1.0000000
S   1   1.00
      0.0024675              1.0000000
S   1   1.00
      0.00123375              1.0000000
P   4   1.00
      1.770000D+01           4.301800D-02
      3.854000D+00           2.289130D-01
      1.046000D+00           5.087280D-01
      2.753000D-01           4.605310D-01
P   1   1.00
      2.753000D-01           1.000000D+00
P   1   1.00
      0.0685600              1.0000000
P   1   1.00
      0.03428              1.0000000
P   1   1.00
      0.01714              1.0000000
P   1   1.00
      0.00857              1.0000000
D   1   1.00
      1.185000D+00           1.0000000
D   1   1.00
      0.3320000              1.0000000
****
S     0
S   12   1.00
      1.108000D+05           2.476350D-04
      1.661000D+04           1.920260D-03
      3.781000D+03           9.961920D-03
      1.071000D+03           4.029750D-02
      3.498000D+02           1.286040D-01
      1.263000D+02           3.034800D-01
      4.926000D+01           4.214320D-01
      2.016000D+01           2.307810D-01
      5.720000D+00           1.789710D-02
      2.182000D+00          -2.975160D-03
      4.327000D-01           8.495220D-04
      1.570000D-01          -3.679360D-04
S   12   1.00
      1.108000D+05          -6.870390D-05
      1.661000D+04          -5.276810D-04
      3.781000D+03          -2.796710D-03
      1.071000D+03          -1.126510D-02
      3.498000D+02          -3.888340D-02
      1.263000D+02          -9.950250D-02
      4.926000D+01          -1.997400D-01
      2.016000D+01          -1.233600D-01
      5.720000D+00           5.131940D-01
      2.182000D+00           6.071200D-01
      4.327000D-01           3.967530D-02
      1.570000D-01          -9.468640D-03
S   12   1.00
      1.108000D+05           1.990770D-05
      1.661000D+04           1.534830D-04
      3.781000D+03           8.095030D-04
      1.071000D+03           3.289740D-03
      3.498000D+02           1.129670D-02
      1.263000D+02           2.963850D-02
      4.926000D+01           5.998510D-02
      2.016000D+01           4.132480D-02
      5.720000D+00          -2.074740D-01
      2.182000D+00          -3.928890D-01
      4.327000D-01           6.328400D-01
      1.570000D-01           5.569240D-01
S   1   1.00
      1.570000D-01           1.000000D+00
S   1   1.00
      0.0507000              1.0000000
S   1   1.00
      0.02535              1.0000000
S   1   1.00
      0.012675              1.0000000
S   1   1.00
      0.0063375              1.0000000
S   1   1.00
      0.00316875              1.0000000
S   1   1.00
      0.00158438              1.0000000
S   1   1.00
      0.00079219              1.0000000
P   8   1.00
      3.997000D+02           4.475410D-03
      9.419000D+01           3.417080D-02
      2.975000D+01           1.442500D-01
      1.077000D+01           3.539280D-01
      4.119000D+00           4.590850D-01
      1.625000D+00           2.063830D-01
      4.726000D-01           1.021410D-02
      1.407000D-01          -6.031220D-05
P   8   1.00
      3.997000D+02          -1.162510D-03
      9.419000D+01          -8.656640D-03
      2.975000D+01          -3.908860D-02
      1.077000D+01          -9.346250D-02
      4.119000D+00          -1.479940D-01
      1.625000D+00           3.019040D-02
      4.726000D-01           5.615730D-01
      1.407000D-01           5.347760D-01
P   1   1.00
      1.407000D-01           1.000000D+00
P   1   1.00
      0.0399000              1.0000000
P   1   1.00
      0.01995              1.0000000
P   1   1.00
      0.009975              1.0000000
P   1   1.00
      0.0049875              1.0000000
D   1   1.00
      4.790000D-01           1.0000000
D   1   1.00
      0.1520000              1.0000000
****
$end

--------------------------------------------------------------
 ----------------------------------------------------------------
             Standard Nuclear Orientation (Angstroms)
    I     Atom           X                Y                Z
 ----------------------------------------------------------------
    1      C      -0.5242172589    -1.8296566089     0.2171523293
    2      C      -1.9321045577    -1.3581868629     0.0506303168
    3      C      -2.2557939306     0.0854462369     0.2199966355
    4      C      -1.2690880924     0.9729370646     0.4983961983
    5      C       0.1415663081     0.5091219462     0.6380393233
    6      C       0.4689762460    -0.9358819083     0.4524127842
    7      O      -2.8246870851    -2.1510430534    -0.2492396626
    8      O       1.0173523578     1.3248122995     0.9201331900
    9      O      -3.5641513331     0.4435892193     0.1311674642
   10      C      -4.0728945729     0.6225383067    -1.2076157883
   11      O      -1.5056428936     2.2945183384     0.7094369189
   12      C      -1.2432713165     3.1599586257    -0.4144017287
   13      C      -0.3528433126    -3.3118997511     0.0539440382
   14      C       1.9279039665    -1.2858965194     0.6280076953
   15      C       2.8167209938    -0.8046966546    -0.4937141267
   16      C       3.8034909627     0.0999010561    -0.4283745042
   17      C       4.2152673405     0.8380343406     0.8147275462
   18      C       4.5931018943     0.4536374223    -1.6631287813
   19      H       0.6940091213    -3.6142350038     0.0717243819
   20      H      -0.8066298634    -3.6383840497    -0.8870961335
   21      H      -0.8898287216    -3.8412513347     0.8495519275
   22      H      -3.5407829328     1.4390323989    -1.7097727708
   23      H      -5.1249513201     0.8819341700    -1.0876889396
   24      H      -3.9771483145    -0.3055341330    -1.7800987664
   25      H      -1.9101778314     2.9123630453    -1.2483202008
   26      H      -0.1966205511     3.0766010177    -0.7251790455
   27      H      -1.4487971491     4.1703215987    -0.0603271748
   28      H       2.0283324804    -2.3708126035     0.7295786222
   29      H       2.2601507384    -0.8438246985     1.5730246736
   30      H       2.6096499695    -1.2611701592    -1.4632904524
   31      H       3.6438200062     0.5455832238     1.6962178883
   32      H       4.0740305849     1.9171520836     0.6740467987
   33      H       5.2828766303     0.6763895407     1.0158201276
   34      H       4.5050517681     1.5264378592    -1.8824065032
   35      H       4.2508084545    -0.1073280455    -2.5377357793
   36      H       5.6623505405     0.2495704965    -1.5164635658
 ----------------------------------------------------------------
 Molecular Point Group                 C1    NOp =  1
 Largest Abelian Subgroup              C1    NOp =  1
 Nuclear Repulsion Energy =        1348.65331905 hartrees
 There are       67 alpha and       67 beta electrons
 Requested basis set is non-standard
 There are 468 shells and 900 basis functions
 Total memory of 1000000 MB is distributed as follows: 
   MEM_STATIC is set to 2000 MB
   QALLOC/CCMAN JOB total memory use is  998000 MB
 Warning: actual memory use might exceed 1000000 MB

 Total QAlloc Memory Limit 1000000 MB
 Mega-Array Size      1956 MB
 MEM_STATIC part      2000 MB

 Requested basis set is rimp2-aug-cc-pVDZ
 There are 558 shells and 1710 basis functions
 A cutoff of  1.0D-14 yielded 109011 shell pairs
 There are    399031 function pairs (    430948 Cartesian)
 Smallest overlap matrix eigenvalue = 2.50E-12
 Linear dependence detected in AO basis
 Tighter screening thresholds may be required for diffuse basis sets
 Use S2THRESH > 14 and THRESH = 14 in case of SCF convergence issues
 Number of orthogonalized atomic orbitals = 767
 Maximum deviation from orthogonality = 1.205E-09

 Scale SEOQF with 1.000000e-02/1.000000e-02/1.000000e-02

 Standard Electronic Orientation quadrupole field applied
 Nucleus-field energy     =     0.0000000052 hartrees
 ================ Generating on-the-fly SAD Guess ================
 Attempting to make child job directory: /scratch/leuven/372/vsc37243/qchem1750457//Frg1/
 Attempting to make child job directory: /scratch/leuven/372/vsc37243/qchem1750457//Frg2/
 Attempting to make child job directory: /scratch/leuven/372/vsc37243/qchem1750457//Frg3/
 Creating input file /scratch/leuven/372/vsc37243/qchem1750457/Frg1.input
 using default PutDataFrgm: nothing
 calling putenv with: QCSCRATCH=/scratch/leuven/372/vsc37243/qchem1750457/ 
 Spawning Job For Fragment 0
 Done Job For Fragment 0
 calling putenv with: QCSCRATCH=/scratch/leuven/372/vsc37243 
 calling putenv with: QCTHREADS=36 
 Creating input file /scratch/leuven/372/vsc37243/qchem1750457/Frg2.input
 using default PutDataFrgm: nothing
 calling putenv with: QCSCRATCH=/scratch/leuven/372/vsc37243/qchem1750457/ 
 Spawning Job For Fragment 1
 Done Job For Fragment 1
 calling putenv with: QCSCRATCH=/scratch/leuven/372/vsc37243 
 calling putenv with: QCTHREADS=36 
 Creating input file /scratch/leuven/372/vsc37243/qchem1750457/Frg3.input
 using default PutDataFrgm: nothing
 calling putenv with: QCSCRATCH=/scratch/leuven/372/vsc37243/qchem1750457/ 
 Spawning Job For Fragment 2
 Done Job For Fragment 2
 calling putenv with: QCSCRATCH=/scratch/leuven/372/vsc37243 
 calling putenv with: QCTHREADS=36 
 Time for running child jobs:  CPU 0.01 s  wall 7.67 s
 ============= Method Specific SAD Guess Constructed =============
 Guess from on-the-fly superposition of atomic densities
 Warning: Energy on first SCF cycle will be non-variational

 -----------------------------------------------------------------------
  General SCF calculation program by
  Eric Jon Sundstrom, Paul Horn, Yuezhi Mao, Dmitri Zuev, Alec White,
  David Stuck, Shaama M.S., Shane Yost, Joonho Lee, David Small,
  Daniel Levine, Susi Lehtola, Hugh Burton, Evgeny Epifanovsky,
  Bang C. Huynh
 -----------------------------------------------------------------------
 Hartree-Fock
 using 36 threads for integral computing
 -------------------------------------------------------
 OpenMP Integral computing Module                
 Release: version 1.0, May 2013, Q-Chem Inc. Pittsburgh 
 -------------------------------------------------------
 A restricted SCF calculation will be
 performed using DIIS
 SCF converges when DIIS error is below 1.0e-10
 ---------------------------------------
  Cycle       Energy         DIIS error
 ---------------------------------------
    1    -846.5189495187      1.98e-02  
    2    -839.7445897931      2.10e-03  
    3    -839.9406853885      1.68e-03  
    4    -840.1015715399      3.03e-04  
    5    -840.1108888173      7.52e-05  
    6    -840.1114888985      2.45e-05  
    7    -840.1115978326      1.29e-05  
    8    -840.1116224764      5.10e-06  
    9    -840.1116271810      1.74e-06  
   10    -840.1116277227      5.95e-07  
   11    -840.1116277751      2.18e-07  
   12    -840.1116277830      7.61e-08  
   13    -840.1116277844      3.30e-08  
   14    -840.1116277849      1.73e-08  
   15    -840.1116277850      8.73e-09  
   16    -840.1116277850      3.23e-09  
   17    -840.1116277850      1.13e-09  
   18    -840.1116277850      5.26e-10  
   19    -840.1116277850      2.36e-10  
   20    -840.1116277850      9.75e-11  Convergence criterion met
 ---------------------------------------
 SCF time:   CPU 38794.98s  wall 1805.00s 
 SCF   energy =  -840.11162779
 Total energy =  -840.11162779


 ------------------------------------------------------------------------------

   CCMAN2: suite of methods based on coupled cluster
           and equation of motion theories.

   Components:
   * libvmm-1.3-trunk
     by Evgeny Epifanovsky, Ilya Kaliman.
   * libtensor-2.5-trunk
     by Evgeny Epifanovsky, Michael Wormit, Dmitry Zuev, Sam Manzer, 
        Ilya Kaliman.
   * libcc-2.5-trunk
     by Evgeny Epifanovsky, Arik Landau, Tomasz Kus, Kirill Khistyaev, 
        Dmitry Zuev, Prashant Manohar, Xintian Feng, Anna Krylov, 
        Matthew Goldey, Alec White, Thomas Jagau, Kaushik Nanda, 
        Anastasia Gunina, Alexander Kunitsa, Joonho Lee.

   CCMAN original authors:
   Anna I. Krylov, C. David Sherrill, Steven R. Gwaltney,
   Edward F. C. Byrd (2000)
   Sergey V. Levchenko, Lyudmila V. Slipchenko, Tao Wang,
   Ana-Maria C. Cristian (2003)
   Piotr A. Pieniazek, C. Melania Oana, Evgeny Epifanovsky (2007)
   Prashant Manohar (2009)

 ------------------------------------------------------------------------------


 Allocating and initializing 950000MB of RAM (this may take a while)...
 Calculation will run on 36 cores.


 Alpha MOs, Restricted
 -- Occupied --                  
-20.597 -20.597 -20.580 -20.578 -11.361 -11.360 -11.328 -11.327
  1 A     2 A     3 A     4 A     5 A     6 A     7 A     8 A                  
-11.298 -11.297 -11.283 -11.280 -11.248 -11.244 -11.243 -11.227
  9 A    10 A    11 A    12 A    13 A    14 A    15 A    16 A                  
-11.227 -11.222  -1.433  -1.416  -1.395  -1.388  -1.157  -1.104
 17 A    18 A    19 A    20 A    21 A    22 A    23 A    24 A                  
 -1.076  -1.025  -0.975  -0.970  -0.939  -0.935  -0.910  -0.881
 25 A    26 A    27 A    28 A    29 A    30 A    31 A    32 A                  
 -0.811  -0.804  -0.752  -0.712  -0.707  -0.691  -0.662  -0.660
 33 A    34 A    35 A    36 A    37 A    38 A    39 A    40 A                  
 -0.649  -0.634  -0.628  -0.623  -0.621  -0.608  -0.595  -0.592
 41 A    42 A    43 A    44 A    45 A    46 A    47 A    48 A                  
 -0.583  -0.567  -0.555  -0.548  -0.537  -0.532  -0.532  -0.530
 49 A    50 A    51 A    52 A    53 A    54 A    55 A    56 A                  
 -0.523  -0.518  -0.509  -0.486  -0.473  -0.471  -0.436  -0.434
 57 A    58 A    59 A    60 A    61 A    62 A    63 A    64 A                  
 -0.388  -0.362  -0.336
 65 A    66 A    67 A                                                          
 -- Virtual --                   
  0.000   0.001   0.001   0.001   0.002   0.002   0.002   0.002
 68 A    69 A    70 A    71 A    72 A    73 A    74 A    75 A                  
  0.003   0.003   0.004   0.004   0.004   0.005   0.006   0.006
 76 A    77 A    78 A    79 A    80 A    81 A    82 A    83 A                  
  0.006   0.006   0.007   0.007   0.008   0.009   0.009   0.010
 84 A    85 A    86 A    87 A    88 A    89 A    90 A    91 A                  
  0.010   0.011   0.011   0.012   0.012   0.012   0.012   0.013
 92 A    93 A    94 A    95 A    96 A    97 A    98 A    99 A                  
  0.013   0.014   0.014   0.015   0.016   0.016   0.018   0.019
100 A   101 A   102 A   103 A   104 A   105 A   106 A   107 A                  
  0.019   0.020   0.020   0.021   0.021   0.021   0.022   0.022
108 A   109 A   110 A   111 A   112 A   113 A   114 A   115 A                  
  0.023   0.023   0.024   0.024   0.024   0.024   0.025   0.025
116 A   117 A   118 A   119 A   120 A   121 A   122 A   123 A                  
  0.027   0.027   0.027   0.028   0.028   0.029   0.029   0.030
124 A   125 A   126 A   127 A   128 A   129 A   130 A   131 A                  
  0.030   0.032   0.033   0.034   0.035   0.036   0.037   0.038
132 A   133 A   134 A   135 A   136 A   137 A   138 A   139 A                  
  0.038   0.040   0.041   0.042   0.043   0.043   0.045   0.045
140 A   141 A   142 A   143 A   144 A   145 A   146 A   147 A                  
  0.046   0.046   0.048   0.048   0.049   0.049   0.050   0.051
148 A   149 A   150 A   151 A   152 A   153 A   154 A   155 A                  
  0.052   0.052   0.053   0.053   0.054   0.055   0.056   0.057
156 A   157 A   158 A   159 A   160 A   161 A   162 A   163 A                  
  0.057   0.059   0.059   0.061   0.062   0.062   0.063   0.063
164 A   165 A   166 A   167 A   168 A   169 A   170 A   171 A                  
  0.064   0.065   0.066   0.066   0.067   0.068   0.069   0.071
172 A   173 A   174 A   175 A   176 A   177 A   178 A   179 A                  
  0.072   0.072   0.075   0.076   0.077   0.079   0.080   0.081
180 A   181 A   182 A   183 A   184 A   185 A   186 A   187 A                  
  0.083   0.084   0.085   0.086   0.087   0.088   0.088   0.090
188 A   189 A   190 A   191 A   192 A   193 A   194 A   195 A                  
  0.092   0.093   0.095   0.098   0.099   0.100   0.102   0.104
196 A   197 A   198 A   199 A   200 A   201 A   202 A   203 A                  
  0.106   0.108   0.108   0.109   0.111   0.112   0.113   0.114
204 A   205 A   206 A   207 A   208 A   209 A   210 A   211 A                  
  0.116   0.118   0.119   0.120   0.120   0.121   0.122   0.123
212 A   213 A   214 A   215 A   216 A   217 A   218 A   219 A                  
  0.124   0.126   0.128   0.129   0.131   0.132   0.132   0.134
220 A   221 A   222 A   223 A   224 A   225 A   226 A   227 A                  
  0.135   0.136   0.136   0.137   0.140   0.141   0.142   0.144
228 A   229 A   230 A   231 A   232 A   233 A   234 A   235 A                  
  0.145   0.146   0.148   0.151   0.152   0.152   0.156   0.158
236 A   237 A   238 A   239 A   240 A   241 A   242 A   243 A                  
  0.160   0.161   0.163   0.163   0.165   0.168   0.170   0.171
244 A   245 A   246 A   247 A   248 A   249 A   250 A   251 A                  
  0.174   0.176   0.180   0.181   0.183   0.185   0.187   0.188
252 A   253 A   254 A   255 A   256 A   257 A   258 A   259 A                  
  0.189   0.192   0.194   0.195   0.195   0.196   0.199   0.201
260 A   261 A   262 A   263 A   264 A   265 A   266 A   267 A                  
  0.202   0.206   0.208   0.211   0.212   0.215   0.216   0.219
268 A   269 A   270 A   271 A   272 A   273 A   274 A   275 A                  
  0.222   0.225   0.228   0.230   0.231   0.233   0.234   0.239
276 A   277 A   278 A   279 A   280 A   281 A   282 A   283 A                  
  0.242   0.243   0.243   0.248   0.249   0.252   0.256   0.258
284 A   285 A   286 A   287 A   288 A   289 A   290 A   291 A                  
  0.261   0.263   0.265   0.267   0.274   0.276   0.277   0.278
292 A   293 A   294 A   295 A   296 A   297 A   298 A   299 A                  
  0.281   0.283   0.286   0.289   0.290   0.294   0.295   0.297
300 A   301 A   302 A   303 A   304 A   305 A   306 A   307 A                  
  0.298   0.304   0.305   0.307   0.307   0.311   0.313   0.317
308 A   309 A   310 A   311 A   312 A   313 A   314 A   315 A                  
  0.321   0.324   0.327   0.331   0.332   0.334   0.339   0.341
316 A   317 A   318 A   319 A   320 A   321 A   322 A   323 A                  
  0.343   0.351   0.351   0.356   0.357   0.362   0.367   0.370
324 A   325 A   326 A   327 A   328 A   329 A   330 A   331 A                  
  0.371   0.377   0.379   0.382   0.385   0.388   0.392   0.394
332 A   333 A   334 A   335 A   336 A   337 A   338 A   339 A                  
  0.398   0.400   0.403   0.407   0.412   0.415   0.417   0.423
340 A   341 A   342 A   343 A   344 A   345 A   346 A   347 A                  
  0.426   0.430   0.435   0.441   0.444   0.446   0.451   0.457
348 A   349 A   350 A   351 A   352 A   353 A   354 A   355 A                  
  0.458   0.462   0.463   0.469   0.473   0.478   0.481   0.484
356 A   357 A   358 A   359 A   360 A   361 A   362 A   363 A                  
  0.488   0.492   0.494   0.500   0.503   0.505   0.509   0.515
364 A   365 A   366 A   367 A   368 A   369 A   370 A   371 A                  
  0.515   0.518   0.523   0.526   0.529   0.534   0.536   0.538
372 A   373 A   374 A   375 A   376 A   377 A   378 A   379 A                  
  0.542   0.544   0.546   0.550   0.552   0.558   0.561   0.563
380 A   381 A   382 A   383 A   384 A   385 A   386 A   387 A                  
  0.568   0.573   0.578   0.582   0.587   0.589   0.597   0.600
388 A   389 A   390 A   391 A   392 A   393 A   394 A   395 A                  
  0.606   0.607   0.610   0.611   0.617   0.623   0.629   0.633
396 A   397 A   398 A   399 A   400 A   401 A   402 A   403 A                  
  0.640   0.643   0.643   0.647   0.650   0.653   0.656   0.661
404 A   405 A   406 A   407 A   408 A   409 A   410 A   411 A                  
  0.666   0.669   0.671   0.676   0.677   0.679   0.684   0.690
412 A   413 A   414 A   415 A   416 A   417 A   418 A   419 A                  
  0.693   0.695   0.697   0.704   0.709   0.710   0.715   0.717
420 A   421 A   422 A   423 A   424 A   425 A   426 A   427 A                  
  0.723   0.725   0.727   0.731   0.733   0.740   0.741   0.746
428 A   429 A   430 A   431 A   432 A   433 A   434 A   435 A                  
  0.747   0.748   0.758   0.761   0.765   0.766   0.772   0.773
436 A   437 A   438 A   439 A   440 A   441 A   442 A   443 A                  
  0.776   0.784   0.789   0.793   0.798   0.807   0.809   0.814
444 A   445 A   446 A   447 A   448 A   449 A   450 A   451 A                  
  0.818   0.818   0.831   0.834   0.837   0.839   0.842   0.844
452 A   453 A   454 A   455 A   456 A   457 A   458 A   459 A                  
  0.848   0.853   0.859   0.864   0.868   0.874   0.875   0.880
460 A   461 A   462 A   463 A   464 A   465 A   466 A   467 A                  
  0.883   0.888   0.898   0.899   0.912   0.916   0.921   0.926
468 A   469 A   470 A   471 A   472 A   473 A   474 A   475 A                  
  0.929   0.931   0.939   0.946   0.948   0.954   0.959   0.962
476 A   477 A   478 A   479 A   480 A   481 A   482 A   483 A                  
  0.970   0.975   0.984   0.995   1.000   1.009   1.015   1.017
484 A   485 A   486 A   487 A   488 A   489 A   490 A   491 A                  
  1.021   1.027   1.043   1.046   1.055   1.062   1.064   1.073
492 A   493 A   494 A   495 A   496 A   497 A   498 A   499 A                  
  1.082   1.083   1.096   1.104   1.117   1.121   1.128   1.132
500 A   501 A   502 A   503 A   504 A   505 A   506 A   507 A                  
  1.139   1.147   1.154   1.157   1.164   1.171   1.174   1.181
508 A   509 A   510 A   511 A   512 A   513 A   514 A   515 A                  
  1.194   1.195   1.207   1.215   1.220   1.227   1.234   1.241
516 A   517 A   518 A   519 A   520 A   521 A   522 A   523 A                  
  1.254   1.258   1.270   1.272   1.276   1.279   1.287   1.290
524 A   525 A   526 A   527 A   528 A   529 A   530 A   531 A                  
  1.303   1.313   1.317   1.329   1.342   1.349   1.358   1.370
532 A   533 A   534 A   535 A   536 A   537 A   538 A   539 A                  
  1.375   1.382   1.390   1.403   1.421   1.431   1.445   1.454
540 A   541 A   542 A   543 A   544 A   545 A   546 A   547 A                  
  1.461   1.466   1.476   1.478   1.492   1.499   1.502   1.506
548 A   549 A   550 A   551 A   552 A   553 A   554 A   555 A                  
  1.529   1.548   1.553   1.563   1.571   1.577   1.586   1.592
556 A   557 A   558 A   559 A   560 A   561 A   562 A   563 A                  
  1.598   1.614   1.623   1.632   1.637   1.651   1.652   1.672
564 A   565 A   566 A   567 A   568 A   569 A   570 A   571 A                  
  1.678   1.688   1.704   1.713   1.717   1.727   1.729   1.739
572 A   573 A   574 A   575 A   576 A   577 A   578 A   579 A                  
  1.740   1.747   1.758   1.765   1.772   1.783   1.787   1.794
580 A   581 A   582 A   583 A   584 A   585 A   586 A   587 A                  
  1.795   1.806   1.809   1.819   1.823   1.832   1.836   1.849
588 A   589 A   590 A   591 A   592 A   593 A   594 A   595 A                  
  1.859   1.870   1.874   1.884   1.888   1.894   1.907   1.914
596 A   597 A   598 A   599 A   600 A   601 A   602 A   603 A                  
  1.923   1.928   1.930   1.935   1.947   1.953   1.957   1.963
604 A   605 A   606 A   607 A   608 A   609 A   610 A   611 A                  
  1.967   1.976   1.979   1.998   2.003   2.017   2.025   2.029
612 A   613 A   614 A   615 A   616 A   617 A   618 A   619 A                  
  2.035   2.044   2.047   2.056   2.065   2.072   2.082   2.100
620 A   621 A   622 A   623 A   624 A   625 A   626 A   627 A                  
  2.110   2.121   2.124   2.127   2.149   2.153   2.155   2.158
628 A   629 A   630 A   631 A   632 A   633 A   634 A   635 A                  
  2.171   2.184   2.186   2.195   2.202   2.217   2.225   2.236
636 A   637 A   638 A   639 A   640 A   641 A   642 A   643 A                  
  2.239   2.247   2.252   2.263   2.266   2.277   2.280   2.283
644 A   645 A   646 A   647 A   648 A   649 A   650 A   651 A                  
  2.293   2.309   2.311   2.319   2.326   2.335   2.346   2.348
652 A   653 A   654 A   655 A   656 A   657 A   658 A   659 A                  
  2.359   2.361   2.367   2.380   2.390   2.395   2.410   2.412
660 A   661 A   662 A   663 A   664 A   665 A   666 A   667 A                  
  2.426   2.434   2.449   2.461   2.472   2.475   2.480   2.504
668 A   669 A   670 A   671 A   672 A   673 A   674 A   675 A                  
  2.513   2.524   2.539   2.542   2.549   2.567   2.570   2.576
676 A   677 A   678 A   679 A   680 A   681 A   682 A   683 A                  
  2.581   2.594   2.612   2.616   2.629   2.636   2.644   2.651
684 A   685 A   686 A   687 A   688 A   689 A   690 A   691 A                  
  2.662   2.667   2.684   2.695   2.718   2.730   2.740   2.745
692 A   693 A   694 A   695 A   696 A   697 A   698 A   699 A                  
  2.758   2.762   2.773   2.790   2.809   2.831   2.846   2.857
700 A   701 A   702 A   703 A   704 A   705 A   706 A   707 A                  
  2.867   2.873   2.885   2.889   2.923   2.929   2.932   2.946
708 A   709 A   710 A   711 A   712 A   713 A   714 A   715 A                  
  2.959   2.969   2.980   3.002   3.035   3.043   3.051   3.061
716 A   717 A   718 A   719 A   720 A   721 A   722 A   723 A                  
  3.102   3.118   3.119   3.132   3.167   3.184   3.189   3.232
724 A   725 A   726 A   727 A   728 A   729 A   730 A   731 A                  
  3.259   3.292   3.325   3.366   3.396   3.461   3.515   3.552
732 A   733 A   734 A   735 A   736 A   737 A   738 A   739 A                  
  3.613   3.625   3.702   3.738   3.821   3.834   3.856   3.883
740 A   741 A   742 A   743 A   744 A   745 A   746 A   747 A                  
  3.887   3.909   3.932   3.974   3.998   4.015   4.021   4.048
748 A   749 A   750 A   751 A   752 A   753 A   754 A   755 A                  
  4.070   4.088   4.113   4.132   4.158   4.194   4.211   4.247
756 A   757 A   758 A   759 A   760 A   761 A   762 A   763 A                  
  4.284   4.342   4.401   5.063
764 A   765 A   766 A   767 A                                                  

 Beta MOs, Restricted
 -- Occupied --                  
-20.597 -20.597 -20.580 -20.578 -11.361 -11.360 -11.328 -11.327
  1 A     2 A     3 A     4 A     5 A     6 A     7 A     8 A                  
-11.298 -11.297 -11.283 -11.280 -11.248 -11.244 -11.243 -11.227
  9 A    10 A    11 A    12 A    13 A    14 A    15 A    16 A                  
-11.227 -11.222  -1.433  -1.416  -1.395  -1.388  -1.157  -1.104
 17 A    18 A    19 A    20 A    21 A    22 A    23 A    24 A                  
 -1.076  -1.025  -0.975  -0.970  -0.939  -0.935  -0.910  -0.881
 25 A    26 A    27 A    28 A    29 A    30 A    31 A    32 A                  
 -0.811  -0.804  -0.752  -0.712  -0.707  -0.691  -0.662  -0.660
 33 A    34 A    35 A    36 A    37 A    38 A    39 A    40 A                  
 -0.649  -0.634  -0.628  -0.623  -0.621  -0.608  -0.595  -0.592
 41 A    42 A    43 A    44 A    45 A    46 A    47 A    48 A                  
 -0.583  -0.567  -0.555  -0.548  -0.537  -0.532  -0.532  -0.530
 49 A    50 A    51 A    52 A    53 A    54 A    55 A    56 A                  
 -0.523  -0.518  -0.509  -0.486  -0.473  -0.471  -0.436  -0.434
 57 A    58 A    59 A    60 A    61 A    62 A    63 A    64 A                  
 -0.388  -0.362  -0.336
 65 A    66 A    67 A                                                          
 -- Virtual --                   
  0.000   0.001   0.001   0.001   0.002   0.002   0.002   0.002
 68 A    69 A    70 A    71 A    72 A    73 A    74 A    75 A                  
  0.003   0.003   0.004   0.004   0.004   0.005   0.006   0.006
 76 A    77 A    78 A    79 A    80 A    81 A    82 A    83 A                  
  0.006   0.006   0.007   0.007   0.008   0.009   0.009   0.010
 84 A    85 A    86 A    87 A    88 A    89 A    90 A    91 A                  
  0.010   0.011   0.011   0.012   0.012   0.012   0.012   0.013
 92 A    93 A    94 A    95 A    96 A    97 A    98 A    99 A                  
  0.013   0.014   0.014   0.015   0.016   0.016   0.018   0.019
100 A   101 A   102 A   103 A   104 A   105 A   106 A   107 A                  
  0.019   0.020   0.020   0.021   0.021   0.021   0.022   0.022
108 A   109 A   110 A   111 A   112 A   113 A   114 A   115 A                  
  0.023   0.023   0.024   0.024   0.024   0.024   0.025   0.025
116 A   117 A   118 A   119 A   120 A   121 A   122 A   123 A                  
  0.027   0.027   0.027   0.028   0.028   0.029   0.029   0.030
124 A   125 A   126 A   127 A   128 A   129 A   130 A   131 A                  
  0.030   0.032   0.033   0.034   0.035   0.036   0.037   0.038
132 A   133 A   134 A   135 A   136 A   137 A   138 A   139 A                  
  0.038   0.040   0.041   0.042   0.043   0.043   0.045   0.045
140 A   141 A   142 A   143 A   144 A   145 A   146 A   147 A                  
  0.046   0.046   0.048   0.048   0.049   0.049   0.050   0.051
148 A   149 A   150 A   151 A   152 A   153 A   154 A   155 A                  
  0.052   0.052   0.053   0.053   0.054   0.055   0.056   0.057
156 A   157 A   158 A   159 A   160 A   161 A   162 A   163 A                  
  0.057   0.059   0.059   0.061   0.062   0.062   0.063   0.063
164 A   165 A   166 A   167 A   168 A   169 A   170 A   171 A                  
  0.064   0.065   0.066   0.066   0.067   0.068   0.069   0.071
172 A   173 A   174 A   175 A   176 A   177 A   178 A   179 A                  
  0.072   0.072   0.075   0.076   0.077   0.079   0.080   0.081
180 A   181 A   182 A   183 A   184 A   185 A   186 A   187 A                  
  0.083   0.084   0.085   0.086   0.087   0.088   0.088   0.090
188 A   189 A   190 A   191 A   192 A   193 A   194 A   195 A                  
  0.092   0.093   0.095   0.098   0.099   0.100   0.102   0.104
196 A   197 A   198 A   199 A   200 A   201 A   202 A   203 A                  
  0.106   0.108   0.108   0.109   0.111   0.112   0.113   0.114
204 A   205 A   206 A   207 A   208 A   209 A   210 A   211 A                  
  0.116   0.118   0.119   0.120   0.120   0.121   0.122   0.123
212 A   213 A   214 A   215 A   216 A   217 A   218 A   219 A                  
  0.124   0.126   0.128   0.129   0.131   0.132   0.132   0.134
220 A   221 A   222 A   223 A   224 A   225 A   226 A   227 A                  
  0.135   0.136   0.136   0.137   0.140   0.141   0.142   0.144
228 A   229 A   230 A   231 A   232 A   233 A   234 A   235 A                  
  0.145   0.146   0.148   0.151   0.152   0.152   0.156   0.158
236 A   237 A   238 A   239 A   240 A   241 A   242 A   243 A                  
  0.160   0.161   0.163   0.163   0.165   0.168   0.170   0.171
244 A   245 A   246 A   247 A   248 A   249 A   250 A   251 A                  
  0.174   0.176   0.180   0.181   0.183   0.185   0.187   0.188
252 A   253 A   254 A   255 A   256 A   257 A   258 A   259 A                  
  0.189   0.192   0.194   0.195   0.195   0.196   0.199   0.201
260 A   261 A   262 A   263 A   264 A   265 A   266 A   267 A                  
  0.202   0.206   0.208   0.211   0.212   0.215   0.216   0.219
268 A   269 A   270 A   271 A   272 A   273 A   274 A   275 A                  
  0.222   0.225   0.228   0.230   0.231   0.233   0.234   0.239
276 A   277 A   278 A   279 A   280 A   281 A   282 A   283 A                  
  0.242   0.243   0.243   0.248   0.249   0.252   0.256   0.258
284 A   285 A   286 A   287 A   288 A   289 A   290 A   291 A                  
  0.261   0.263   0.265   0.267   0.274   0.276   0.277   0.278
292 A   293 A   294 A   295 A   296 A   297 A   298 A   299 A                  
  0.281   0.283   0.286   0.289   0.290   0.294   0.295   0.297
300 A   301 A   302 A   303 A   304 A   305 A   306 A   307 A                  
  0.298   0.304   0.305   0.307   0.307   0.311   0.313   0.317
308 A   309 A   310 A   311 A   312 A   313 A   314 A   315 A                  
  0.321   0.324   0.327   0.331   0.332   0.334   0.339   0.341
316 A   317 A   318 A   319 A   320 A   321 A   322 A   323 A                  
  0.343   0.351   0.351   0.356   0.357   0.362   0.367   0.370
324 A   325 A   326 A   327 A   328 A   329 A   330 A   331 A                  
  0.371   0.377   0.379   0.382   0.385   0.388   0.392   0.394
332 A   333 A   334 A   335 A   336 A   337 A   338 A   339 A                  
  0.398   0.400   0.403   0.407   0.412   0.415   0.417   0.423
340 A   341 A   342 A   343 A   344 A   345 A   346 A   347 A                  
  0.426   0.430   0.435   0.441   0.444   0.446   0.451   0.457
348 A   349 A   350 A   351 A   352 A   353 A   354 A   355 A                  
  0.458   0.462   0.463   0.469   0.473   0.478   0.481   0.484
356 A   357 A   358 A   359 A   360 A   361 A   362 A   363 A                  
  0.488   0.492   0.494   0.500   0.503   0.505   0.509   0.515
364 A   365 A   366 A   367 A   368 A   369 A   370 A   371 A                  
  0.515   0.518   0.523   0.526   0.529   0.534   0.536   0.538
372 A   373 A   374 A   375 A   376 A   377 A   378 A   379 A                  
  0.542   0.544   0.546   0.550   0.552   0.558   0.561   0.563
380 A   381 A   382 A   383 A   384 A   385 A   386 A   387 A                  
  0.568   0.573   0.578   0.582   0.587   0.589   0.597   0.600
388 A   389 A   390 A   391 A   392 A   393 A   394 A   395 A                  
  0.606   0.607   0.610   0.611   0.617   0.623   0.629   0.633
396 A   397 A   398 A   399 A   400 A   401 A   402 A   403 A                  
  0.640   0.643   0.643   0.647   0.650   0.653   0.656   0.661
404 A   405 A   406 A   407 A   408 A   409 A   410 A   411 A                  
  0.666   0.669   0.671   0.676   0.677   0.679   0.684   0.690
412 A   413 A   414 A   415 A   416 A   417 A   418 A   419 A                  
  0.693   0.695   0.697   0.704   0.709   0.710   0.715   0.717
420 A   421 A   422 A   423 A   424 A   425 A   426 A   427 A                  
  0.723   0.725   0.727   0.731   0.733   0.740   0.741   0.746
428 A   429 A   430 A   431 A   432 A   433 A   434 A   435 A                  
  0.747   0.748   0.758   0.761   0.765   0.766   0.772   0.773
436 A   437 A   438 A   439 A   440 A   441 A   442 A   443 A                  
  0.776   0.784   0.789   0.793   0.798   0.807   0.809   0.814
444 A   445 A   446 A   447 A   448 A   449 A   450 A   451 A                  
  0.818   0.818   0.831   0.834   0.837   0.839   0.842   0.844
452 A   453 A   454 A   455 A   456 A   457 A   458 A   459 A                  
  0.848   0.853   0.859   0.864   0.868   0.874   0.875   0.880
460 A   461 A   462 A   463 A   464 A   465 A   466 A   467 A                  
  0.883   0.888   0.898   0.899   0.912   0.916   0.921   0.926
468 A   469 A   470 A   471 A   472 A   473 A   474 A   475 A                  
  0.929   0.931   0.939   0.946   0.948   0.954   0.959   0.962
476 A   477 A   478 A   479 A   480 A   481 A   482 A   483 A                  
  0.970   0.975   0.984   0.995   1.000   1.009   1.015   1.017
484 A   485 A   486 A   487 A   488 A   489 A   490 A   491 A                  
  1.021   1.027   1.043   1.046   1.055   1.062   1.064   1.073
492 A   493 A   494 A   495 A   496 A   497 A   498 A   499 A                  
  1.082   1.083   1.096   1.104   1.117   1.121   1.128   1.132
500 A   501 A   502 A   503 A   504 A   505 A   506 A   507 A                  
  1.139   1.147   1.154   1.157   1.164   1.171   1.174   1.181
508 A   509 A   510 A   511 A   512 A   513 A   514 A   515 A                  
  1.194   1.195   1.207   1.215   1.220   1.227   1.234   1.241
516 A   517 A   518 A   519 A   520 A   521 A   522 A   523 A                  
  1.254   1.258   1.270   1.272   1.276   1.279   1.287   1.290
524 A   525 A   526 A   527 A   528 A   529 A   530 A   531 A                  
  1.303   1.313   1.317   1.329   1.342   1.349   1.358   1.370
532 A   533 A   534 A   535 A   536 A   537 A   538 A   539 A                  
  1.375   1.382   1.390   1.403   1.421   1.431   1.445   1.454
540 A   541 A   542 A   543 A   544 A   545 A   546 A   547 A                  
  1.461   1.466   1.476   1.478   1.492   1.499   1.502   1.506
548 A   549 A   550 A   551 A   552 A   553 A   554 A   555 A                  
  1.529   1.548   1.553   1.563   1.571   1.577   1.586   1.592
556 A   557 A   558 A   559 A   560 A   561 A   562 A   563 A                  
  1.598   1.614   1.623   1.632   1.637   1.651   1.652   1.672
564 A   565 A   566 A   567 A   568 A   569 A   570 A   571 A                  
  1.678   1.688   1.704   1.713   1.717   1.727   1.729   1.739
572 A   573 A   574 A   575 A   576 A   577 A   578 A   579 A                  
  1.740   1.747   1.758   1.765   1.772   1.783   1.787   1.794
580 A   581 A   582 A   583 A   584 A   585 A   586 A   587 A                  
  1.795   1.806   1.809   1.819   1.823   1.832   1.836   1.849
588 A   589 A   590 A   591 A   592 A   593 A   594 A   595 A                  
  1.859   1.870   1.874   1.884   1.888   1.894   1.907   1.914
596 A   597 A   598 A   599 A   600 A   601 A   602 A   603 A                  
  1.923   1.928   1.930   1.935   1.947   1.953   1.957   1.963
604 A   605 A   606 A   607 A   608 A   609 A   610 A   611 A                  
  1.967   1.976   1.979   1.998   2.003   2.017   2.025   2.029
612 A   613 A   614 A   615 A   616 A   617 A   618 A   619 A                  
  2.035   2.044   2.047   2.056   2.065   2.072   2.082   2.100
620 A   621 A   622 A   623 A   624 A   625 A   626 A   627 A                  
  2.110   2.121   2.124   2.127   2.149   2.153   2.155   2.158
628 A   629 A   630 A   631 A   632 A   633 A   634 A   635 A                  
  2.171   2.184   2.186   2.195   2.202   2.217   2.225   2.236
636 A   637 A   638 A   639 A   640 A   641 A   642 A   643 A                  
  2.239   2.247   2.252   2.263   2.266   2.277   2.280   2.283
644 A   645 A   646 A   647 A   648 A   649 A   650 A   651 A                  
  2.293   2.309   2.311   2.319   2.326   2.335   2.346   2.348
652 A   653 A   654 A   655 A   656 A   657 A   658 A   659 A                  
  2.359   2.361   2.367   2.380   2.390   2.395   2.410   2.412
660 A   661 A   662 A   663 A   664 A   665 A   666 A   667 A                  
  2.426   2.434   2.449   2.461   2.472   2.475   2.480   2.504
668 A   669 A   670 A   671 A   672 A   673 A   674 A   675 A                  
  2.513   2.524   2.539   2.542   2.549   2.567   2.570   2.576
676 A   677 A   678 A   679 A   680 A   681 A   682 A   683 A                  
  2.581   2.594   2.612   2.616   2.629   2.636   2.644   2.651
684 A   685 A   686 A   687 A   688 A   689 A   690 A   691 A                  
  2.662   2.667   2.684   2.695   2.718   2.730   2.740   2.745
692 A   693 A   694 A   695 A   696 A   697 A   698 A   699 A                  
  2.758   2.762   2.773   2.790   2.809   2.831   2.846   2.857
700 A   701 A   702 A   703 A   704 A   705 A   706 A   707 A                  
  2.867   2.873   2.885   2.889   2.923   2.929   2.932   2.946
708 A   709 A   710 A   711 A   712 A   713 A   714 A   715 A                  
  2.959   2.969   2.980   3.002   3.035   3.043   3.051   3.061
716 A   717 A   718 A   719 A   720 A   721 A   722 A   723 A                  
  3.102   3.118   3.119   3.132   3.167   3.184   3.189   3.232
724 A   725 A   726 A   727 A   728 A   729 A   730 A   731 A                  
  3.259   3.292   3.325   3.366   3.396   3.461   3.515   3.552
732 A   733 A   734 A   735 A   736 A   737 A   738 A   739 A                  
  3.613   3.625   3.702   3.738   3.821   3.834   3.856   3.883
740 A   741 A   742 A   743 A   744 A   745 A   746 A   747 A                  
  3.887   3.909   3.932   3.974   3.998   4.015   4.021   4.048
748 A   749 A   750 A   751 A   752 A   753 A   754 A   755 A                  
  4.070   4.088   4.113   4.132   4.158   4.194   4.211   4.247
756 A   757 A   758 A   759 A   760 A   761 A   762 A   763 A                  
  4.284   4.342   4.401   5.063
764 A   765 A   766 A   767 A                                                  

 Occupation and symmetry of molecular orbitals

 Point group: C1 (1 irreducible representation).

                           A     All 
 -------------------------------------
 All molecular orbitals:
  - Alpha                  767   767 
  - Beta                   767   767 
 -------------------------------------
 Alpha orbitals:
  - Frozen occupied        18    18  
  - Active occupied        49    49  
  - Active virtual         700   700 
  - Frozen virtual         0     0   
 -------------------------------------
 Beta orbitals:
  - Frozen occupied        18    18  
  - Active occupied        49    49  
  - Active virtual         700   700 
  - Frozen virtual         0     0   
 -------------------------------------

 Import integrals:   CPU 0.00 s  wall 0.00 s

 Import integrals:   CPU 4734.37 s  wall 142.16 s


 MP2  CPU 3016.54 s  wall 114.37 s
Running a double precision version
           RI-CC2 T amplitudes will be solved using DIIS.

           Start     Size      MaxIter   EConv     TConv     
           3         7         100       1.00e-08  1.00e-07  
 ------------------------------------------------------------------------------
           Energy (a.u.)   Ediff      Tdiff       Comment
 ------------------------------------------------------------------------------
        -842.8549773193                           
     1  -842.8533737323   1.60e-03   1.75e+00     Step took 02.51.
     2  -842.8860760969   3.27e-02   7.59e-02     
     3  -842.8893334082   3.26e-03   5.08e-02     
     4  -842.8944251364   5.09e-03   1.61e-02     Switched to DIIS steps.
     5  -842.8974516485   3.03e-03   1.94e-02     
     6  -842.8977706381   3.19e-04   3.07e-03     
     7  -842.8977733230   2.68e-06   2.31e-03     
     8  -842.8977589092   1.44e-05   6.06e-04     
     9  -842.8977684766   9.57e-06   3.39e-04     
    10  -842.8977735323   5.06e-06   1.12e-04     
    11  -842.8977735139   1.84e-08   6.72e-05     
    12  -842.8977749880   1.47e-06   4.87e-05     
    13  -842.8977743271   6.61e-07   3.22e-05     
    14  -842.8977738414   4.86e-07   1.79e-05     
    15  -842.8977736423   1.99e-07   1.03e-05     
    16  -842.8977734641   1.78e-07   5.14e-06     
    17  -842.8977734047   5.94e-08   3.55e-06     
    18  -842.8977733873   1.74e-08   1.76e-06     
    19  -842.8977733676   1.97e-08   1.08e-06     
    20  -842.8977733630   4.59e-09   5.37e-07     
    21  -842.8977733630   3.08e-11   3.24e-07     
    22  -842.8977733606   2.37e-09   1.70e-07     
    23  -842.8977733608   2.52e-10   1.05e-07     
    24  -842.8977733611   2.08e-10   4.85e-08     
 ------------------------------------------------------------------------------
        -842.8977733611                           CC2 T converged.

End of double precision
 SCF energy                 = -840.11162779
 MP2 energy                 = -842.85497732
 CC2 correlation energy    =   -2.78614558
 CC2 total energy          = -842.89777336

 CC2  T1^2 = 0.0616  T2^2 = 0.9769  Leading amplitudes:

 Amplitude    Orbitals with energies
  0.0315       53 (A) A                  ->    100 (A) A                  
              -0.5371                          0.0134                     
  0.0315       53 (A) B                  ->    100 (A) B                  
              -0.5371                          0.0134                     
 -0.0314       54 (A) A                  ->    100 (A) A                  
              -0.5323                          0.0134                     
 -0.0314       54 (A) B                  ->    100 (A) B                  
              -0.5323                          0.0134                     

 Amplitude    Orbitals with energies
 -0.0466       65 (A) A      65 (A) B    ->    100 (A) A     100 (A) B    
              -0.3877       -0.3877            0.0134        0.0134       
  0.0466       65 (A) A      65 (A) B    ->    100 (A) B     100 (A) A    
              -0.3877       -0.3877            0.0134        0.0134       
  0.0466       65 (A) B      65 (A) A    ->    100 (A) A     100 (A) B    
              -0.3877       -0.3877            0.0134        0.0134       
 -0.0466       65 (A) B      65 (A) A    ->    100 (A) B     100 (A) A    
              -0.3877       -0.3877            0.0134        0.0134       

 Computing CC2 intermediates for later calculations in double precision
 Finished.


 CC2  CPU 143797.10 s  wall 4468.08 s
        Solving for EOMEA-CC2/MP2 A transitions.

Running a double precision version
      RI-EOMEA-CC2/MP2 right amplitudes will be solved using Davidson.
        Amplitudes will be solved using standard  algorithm.
     Hard-coded thresholds: 
     LinDepThresh=1.00e-15  NormThresh=1.00e-06  ReorthogonThresh=1.00e-02

      Roots     MaxVec    MaxIter   Precond   Conv      Shift    
      2         120       60        1         1.00e-08  0.00e+00  
 ------------------------------------------------------------------------------
      Iter ConvRoots NVecs ResNorm^2 Current eigenvalues (eV)
 ------------------------------------------------------------------------------
      0    0      2     1.66e-04   0.0127   0.0309   
      1    0      4     1.02e-04   0.0079   0.0294   
      2    0      6     2.25e-04   0.0011   0.0283   
      3    0      8     2.35e-04   -0.0116   0.0281   
      4    0      10    9.10e-03   -0.2226   0.0086   
      5    0      12    3.73e-03   -1.2445   -0.0002   
      6    0      14    1.35e-03   -1.6711   -0.0042   
      7    0      16    2.10e-04   -1.7278   -0.0059   
      8    0      18    2.39e-05   -1.7369   -0.0066   
      9    0      20    8.16e-06   -1.7378   -0.0068   
      10   0      22    1.06e-06   -1.7380   -0.0069   
      11   0      24    4.04e-07   -1.7380   -0.0069   
      12   0      26    9.75e-08   -1.7381   -0.0069   
      13   0      28    4.37e-08   -1.7381   -0.0069   
      14   1      30    1.42e-08   -1.7381*  -0.0069   
      15   2      31    3.76e-09   -1.7381*  -0.0069*  

     Davidson procedure converged

 EOMEA transition 1/A
 Total energy = -842.96164597 a.u.  Excitation energy = -1.7381 eV.
 R1^2 = 0.9025  R2^2 = 0.0975  Res^2 = 1.01e-09
 Conv-d = yes

 Amplitude    Transitions between orbitals
 -0.7546       infty       ->    100 (A) B                  
 -0.3590       infty       ->    102 (A) B                  
  0.2959       infty       ->    101 (A) B                  
 -0.1913       infty       ->    96 (A) B                   
 -0.1115       infty       ->    99 (A) B                   
 -0.1060       infty       ->    97 (A) B                   

              Summary of significant orbitals:

               Number  Type             Irrep      Energy
               96      Vir  Beta       96 (A)      0.0121
               97      Vir  Beta       97 (A)      0.0122
               99      Vir  Beta       99 (A)      0.0129
               100     Vir  Beta      100 (A)      0.0134
               101     Vir  Beta      101 (A)      0.0138
               102     Vir  Beta      102 (A)      0.0141


 EOMEA transition 2/A
 Total energy = -842.89802860 a.u.  Excitation energy = -0.0069 eV.
 R1^2 = 0.9972  R2^2 = 0.0028  Res^2 = 6.50e-09
 Conv-d = yes

 Amplitude    Transitions between orbitals
  0.8801       infty       ->    68 (A) B                   
 -0.2455       infty       ->    75 (A) B                   
  0.2378       infty       ->    76 (A) B                   
  0.1397       infty       ->    85 (A) B                   
 -0.1090       infty       ->    88 (A) B                   

              Summary of significant orbitals:

               Number  Type             Irrep      Energy
               68      Vir  Beta       68 (A)      0.0004
               75      Vir  Beta       75 (A)      0.0024
               76      Vir  Beta       76 (A)      0.0027
               85      Vir  Beta       85 (A)      0.0063
               88      Vir  Beta       88 (A)      0.0084


Running a double precision version
      RI-EOMEA-CC2/MP2 left amplitudes will be solved using Davidson.
        Amplitudes will be solved using MOM  algorithm.
     Hard-coded thresholds: 
     LinDepThresh=1.00e-15  NormThresh=1.00e-06  ReorthogonThresh=1.00e-02

      Roots     MaxVec    MaxIter   Precond   Conv      Shift    
      2         120       60        1         1.00e-08  0.00e+00  
 ------------------------------------------------------------------------------
      Iter ConvRoots NVecs ResNorm^2 Current eigenvalues (eV)
 ------------------------------------------------------------------------------
      0    0      2     4.39e-03   -1.7381   -0.0069   
      1    0      4     1.81e-03   -1.7381   -0.0069   
      2    0      6     6.44e-05   -1.7381   -0.0069   
      3    0      8     6.21e-06   -1.7381   -0.0069   
      4    0      10    1.18e-06   -1.7381   -0.0069   
      5    1      12    8.27e-08   -1.7381   -0.0069*  
      6    1      13    3.76e-08   -1.7381   -0.0069*  
      7    1      14    9.04e-09   -1.7381   -0.0069*  
      8    2      15    5.48e-09   -1.7381*  -0.0069*  

     Davidson procedure converged

 Excited state properties for  EOMEA-CC2 transition 1/A
 Dipole moment (a.u.): 2.368587 (X 1.753051, Y 0.814956, Z -1.368527)
 R-squared (a.u.): 5390.808858 (XX 3548.463140, YY 1452.594016, ZZ 389.751703)
 Gauge origin (a.u.): (0.000000, 0.000000, 0.000000)
 Angular momentum (a.u.) against gauge origin: 
 (X -0.119433i, Y -0.180979i, Z 0.063935i)
 Traces of the OPDMs: Tr(AA) 67.000000, Tr(BB) 68.000000

 Excited state properties for  EOMEA-CC2 transition 2/A
 Dipole moment (a.u.): 12.054557 (X -3.137565, Y -1.674407, Z 11.518003)
 R-squared (a.u.): 6469.426445 (XX 3871.718111, YY 1779.953530, ZZ 817.754805)
 Gauge origin (a.u.): (0.000000, 0.000000, 0.000000)
 Angular momentum (a.u.) against gauge origin: 
 (X -0.118760i, Y -0.204689i, Z 0.023800i)
 Traces of the OPDMs: Tr(AA) 67.000000, Tr(BB) 68.000000


 EOMEA-CC2  CPU 25139.22 s  wall 1291.17 s

 Start computing the transition properties

 ------------------------------------------------------------------------------
 State A: eomea_cc2/b: 1/A
 State B: cc2: 0/A

       ***    Dyson orbital calculation   *** 

 EOM-EA-CC2 state  1/A -- Reference  transition
 Energy difference = -1.7381 eV.

 Left Dyson orbital norm is 0.9556

Left beta Dyson orbital in the MO basis (canonical Q-Chem's ordering):
0  -2.5991e-16 
1  -1.0939e-14 
2  4.8815e-14  
3  5.3588e-16  
4  2.6902e-17  
5  5.2427e-16  
6  -3.8621e-16 
7  -1.4319e-16 
8  -4.2399e-16 
9  -6.5104e-15 
10 -8.3845e-16 
11 9.1548e-16  
12 7.6458e-16  
13 -5.8610e-16 
14 2.9066e-15  
15 1.3932e-13  
16 -1.1555e-14 
17 -2.3729e-15 
18 -4.0331e-05 
19 1.6189e-03  
20 -4.2643e-05 
21 -1.7594e-03 
22 -2.7266e-04 
23 -6.0609e-04 
24 6.8324e-05  
25 -4.6213e-04 
26 2.1420e-03  
27 1.0812e-03  
28 -7.1366e-04 
29 5.2204e-04  
30 3.1489e-03  
31 2.3481e-03  
32 -8.9507e-04 
33 4.0671e-03  
34 7.8100e-05  
35 2.8714e-03  
36 -2.6304e-03 
37 8.6291e-03  
38 2.0623e-04  
39 7.5674e-04  
40 4.1974e-03  
41 -9.2107e-03 
42 -3.3814e-02 
43 1.5667e-03  
44 5.5879e-03  
45 4.8435e-04  
46 1.6726e-02  
47 -1.8703e-02 
48 -1.9184e-03 
49 -1.1051e-02 
50 -4.3732e-02 
51 -2.0569e-02 
52 4.3576e-02  
53 -4.2981e-02 
54 8.9344e-03  
55 -2.6142e-03 
56 3.5733e-03  
57 1.2880e-02  
58 6.6917e-03  
59 -2.4977e-04 
60 -3.6737e-03 
61 5.0416e-04  
62 -1.1581e-03 
63 7.2805e-03  
64 -3.9332e-04 
65 -5.0932e-04 
66 -5.7118e-04 
67 1.0907e-02  
68 -1.3195e-03 
69 2.1899e-03  
70 1.4012e-03  
71 4.6794e-03  
72 3.9737e-03  
73 4.0274e-03  
74 -1.4275e-02 
75 1.4673e-02  
76 5.7576e-03  
77 5.9367e-03  
78 -1.0336e-02 
79 5.9671e-03  
80 -5.2486e-03 
81 -2.0652e-02 
82 -1.2649e-02 
83 -4.4873e-04 
84 2.8477e-02  
85 1.8269e-04  
86 -3.3129e-03 
87 -5.3212e-02 
88 4.0473e-02  
89 -2.7874e-02 
90 -4.9915e-02 
91 3.5909e-03  
92 2.8666e-02  
93 -2.5599e-02 
94 8.0573e-02  
95 -2.0079e-01 
96 -1.1133e-01 
97 -1.0185e-01 
98 -1.1697e-01 
99 -7.9155e-01 
1003.1033e-01  
101-3.7628e-01 
102-7.0474e-02 
1032.9538e-03  
104-3.6623e-02 
1059.1054e-02  
106-2.6702e-02 
107-4.0153e-02 
108-7.9223e-03 
109-1.1077e-02 
110-1.9179e-02 
1113.2016e-02  
1129.2188e-03  
113-4.0707e-03 
1141.0062e-02  
115-2.7477e-02 
1163.3522e-02  
117-5.3906e-03 
1184.2124e-02  
1191.9608e-02  
1201.1672e-02  
1218.7697e-05  
122-2.3192e-03 
123-5.8039e-03 
1242.5438e-02  
1251.5222e-02  
126-1.6029e-02 
1277.7610e-03  
1282.4327e-02  
1291.1665e-02  
130-1.6470e-04 
1314.2307e-03  
1321.7655e-03  
1334.4556e-03  
134-2.6927e-02 
135-6.2826e-03 
1367.9562e-04  
1371.2116e-02  
138-1.0841e-02 
1399.9471e-03  
140-6.6999e-04 
141-4.1283e-03 
1427.5306e-04  
1431.0047e-02  
144-2.0900e-02 
1451.3856e-02  
1462.4225e-03  
147-3.2157e-03 
1485.8617e-04  
149-6.4001e-03 
1501.4207e-02  
1516.4417e-03  
1522.9172e-03  
153-1.6999e-02 
1543.4611e-03  
155-1.2670e-02 
156-2.0727e-03 
1579.3334e-03  
158-4.9114e-03 
1598.0827e-03  
1604.6464e-04  
1616.4103e-03  
1625.5760e-03  
1633.2625e-03  
164-5.3828e-04 
1659.4135e-03  
1664.6019e-03  
167-3.2892e-03 
1684.6237e-03  
169-1.7985e-03 
170-9.1545e-04 
1711.5795e-03  
1721.8527e-03  
173-3.9452e-03 
1745.0472e-03  
1752.8326e-03  
1763.6180e-03  
1773.5459e-03  
1784.9862e-03  
179-2.3552e-03 
180-1.0977e-03 
181-7.1967e-03 
1827.1372e-03  
183-2.3454e-04 
1842.1519e-03  
185-1.0227e-03 
186-2.4363e-03 
1876.7215e-03  
188-1.0485e-02 
1891.7989e-03  
190-5.8160e-03 
191-7.0711e-03 
192-7.0213e-03 
193-4.0749e-04 
1945.4940e-03  
195-3.6639e-03 
1961.5279e-03  
197-4.5128e-03 
1981.0537e-03  
199-5.1452e-03 
2003.3323e-03  
201-1.4152e-03 
202-1.5578e-03 
2034.8793e-03  
2044.6429e-03  
205-2.9121e-03 
206-1.1618e-03 
207-1.4358e-03 
2087.6904e-03  
209-2.8686e-03 
210-7.2693e-03 
2114.3503e-05  
2123.6695e-03  
2134.1958e-03  
214-6.1282e-03 
2153.3108e-03  
2164.3658e-04  
2175.5439e-03  
2184.3835e-03  
219-1.1648e-03 
220-1.6886e-03 
2216.7941e-04  
222-6.5313e-04 
223-1.8668e-03 
224-1.4543e-03 
225-1.7656e-03 
2262.5232e-04  
2277.3833e-03  
228-1.8619e-03 
2292.9458e-03  
230-1.3471e-05 
2311.8002e-03  
232-3.6217e-03 
2338.5302e-04  
2342.4602e-03  
2354.8127e-03  
2369.1248e-03  
237-9.2722e-03 
238-5.1553e-03 
239-3.2082e-03 
240-5.4638e-03 
241-1.6655e-04 
242-1.3088e-03 
2431.6185e-03  
244-7.9711e-03 
245-3.9697e-03 
246-4.0552e-03 
2476.2304e-03  
248-4.2598e-03 
249-2.9176e-03 
2507.6279e-04  
2517.1673e-03  
2525.7014e-03  
2537.5236e-03  
254-8.2209e-03 
2553.8417e-03  
2566.1976e-03  
2572.0030e-04  
258-2.6403e-03 
2591.9555e-03  
2604.6429e-03  
2614.7674e-03  
2623.0591e-03  
2633.0711e-03  
2642.4019e-03  
265-1.8151e-03 
2667.0857e-04  
2671.7561e-03  
2682.2158e-03  
2691.8919e-03  
2709.9294e-04  
2712.4351e-03  
2723.8437e-04  
273-8.1312e-05 
274-1.1145e-03 
2752.6747e-04  
276-5.1929e-03 
2771.6290e-04  
278-1.9479e-03 
279-5.7120e-03 
280-1.9384e-03 
281-2.2668e-03 
282-1.1245e-04 
2838.4982e-03  
2842.3257e-05  
2852.7976e-03  
286-1.1091e-03 
287-1.6527e-03 
2883.7358e-03  
2892.9067e-04  
2903.2864e-04  
2913.4307e-03  
292-3.7437e-03 
2932.1817e-04  
294-4.4326e-03 
295-2.8226e-03 
296-1.4499e-03 
2976.5247e-04  
298-3.4460e-03 
299-1.2468e-03 
300-1.9200e-04 
301-3.4842e-03 
302-1.5544e-03 
3031.0762e-03  
304-5.2268e-03 
305-1.6984e-04 
306-4.3393e-03 
3071.0635e-02  
308-8.6376e-03 
309-1.3089e-02 
3108.2995e-03  
311-7.5849e-03 
3125.0656e-03  
3135.9413e-03  
314-2.7505e-03 
315-6.7488e-03 
3169.9755e-03  
317-8.8306e-03 
3189.2138e-03  
3192.2832e-03  
3201.2357e-02  
3212.2277e-03  
322-3.4192e-03 
3233.6498e-03  
3242.9864e-03  
3252.6209e-03  
326-3.5728e-03 
327-3.4647e-03 
328-1.6786e-03 
329-8.1541e-04 
3301.4269e-04  
331-4.2401e-03 
332-6.4714e-04 
3332.0133e-03  
3344.9331e-03  
335-7.9249e-03 
3361.0539e-03  
337-4.1864e-03 
3389.0059e-04  
3391.5298e-03  
3402.6903e-04  
341-2.4930e-03 
3422.0138e-03  
3431.0925e-03  
3441.2694e-04  
3451.7568e-03  
346-6.5107e-04 
3472.0891e-03  
3481.1010e-03  
349-1.0478e-03 
3502.5665e-03  
351-1.8012e-03 
3521.8783e-03  
353-7.5717e-04 
3543.5209e-03  
355-1.9025e-03 
3563.4524e-03  
357-8.9948e-04 
358-1.5777e-03 
3596.6970e-04  
3601.5366e-03  
361-1.4474e-03 
3621.1748e-03  
3633.3422e-04  
364-1.4157e-03 
3652.2353e-03  
3663.8494e-03  
3678.8377e-04  
368-3.1591e-03 
369-3.6308e-04 
370-4.4703e-05 
3711.7465e-03  
3727.9715e-04  
373-1.1536e-03 
3741.5921e-03  
3755.7218e-04  
3761.2041e-04  
3771.3065e-03  
3781.2275e-04  
379-2.3038e-03 
380-2.0095e-03 
381-5.7299e-05 
3821.6387e-03  
3834.7035e-04  
384-1.8978e-04 
385-7.4097e-04 
3867.2871e-04  
3877.1821e-05  
388-3.3959e-04 
389-3.9210e-04 
390-5.0681e-04 
391-2.9746e-04 
3922.1784e-04  
3939.6785e-04  
394-1.9944e-04 
395-1.4912e-03 
396-5.1047e-04 
3971.2689e-03  
3985.5601e-04  
3991.3859e-03  
400-1.0431e-03 
4019.5652e-04  
402-2.7293e-04 
4037.6894e-04  
404-1.4770e-04 
4055.2477e-04  
4061.1584e-03  
4071.5612e-03  
4081.5930e-03  
409-4.4049e-04 
4103.3570e-03  
411-9.5527e-04 
412-1.2481e-03 
4133.7650e-04  
414-2.5713e-03 
415-1.3026e-03 
4161.6962e-03  
417-8.3785e-04 
418-3.1081e-03 
4191.7307e-03  
420-1.8514e-04 
4213.4623e-03  
4224.6927e-04  
4234.1994e-04  
4243.8527e-04  
425-2.5552e-03 
426-8.2639e-04 
4271.1916e-03  
428-6.6072e-05 
4297.7778e-04  
4306.6565e-04  
4313.8734e-04  
432-2.3011e-03 
4332.9940e-03  
4344.7862e-03  
4352.8113e-03  
436-7.7131e-04 
437-2.1965e-03 
4387.8684e-04  
439-9.5853e-04 
4406.9212e-05  
4412.0615e-03  
4427.2070e-04  
443-1.5907e-03 
4443.7394e-04  
4451.1612e-03  
446-2.9987e-04 
4471.0045e-03  
4484.8623e-04  
449-2.2956e-04 
450-2.1920e-03 
4511.0144e-03  
4521.7208e-03  
4532.8739e-03  
4544.5209e-05  
4555.9426e-04  
456-1.4221e-03 
457-1.5265e-03 
4588.8059e-04  
4592.6991e-03  
460-3.0311e-04 
461-1.5563e-03 
4621.8452e-03  
4631.8955e-03  
4641.5668e-03  
4652.1714e-03  
466-5.8323e-04 
467-2.1695e-03 
468-2.1334e-03 
469-1.2411e-03 
470-2.6840e-03 
471-2.0091e-04 
472-2.3586e-04 
4731.1745e-03  
474-1.2516e-03 
475-1.1878e-03 
476-3.3707e-03 
477-1.8679e-04 
478-1.5215e-03 
479-6.5152e-05 
4804.3576e-04  
481-5.2786e-03 
482-3.2362e-03 
4832.5708e-03  
484-1.0220e-02 
4855.3650e-03  
4861.8365e-03  
487-2.2967e-04 
4884.4239e-03  
4891.3206e-04  
4902.8674e-03  
4914.7188e-03  
4927.5634e-04  
4932.1350e-03  
4942.9692e-03  
495-3.8777e-03 
496-3.0461e-03 
497-3.3183e-03 
4983.3331e-03  
499-5.1716e-04 
500-5.4024e-03 
501-4.4949e-03 
502-2.5115e-03 
5035.4430e-04  
504-1.3433e-03 
5054.5929e-04  
506-1.1586e-03 
5071.0242e-03  
5081.6118e-03  
509-7.6094e-04 
510-2.1507e-04 
511-1.4171e-03 
512-1.4666e-03 
513-4.7906e-05 
514-7.7227e-04 
515-4.5238e-04 
516-2.9257e-03 
5172.7551e-03  
518-2.4352e-04 
5193.2662e-03  
5203.0060e-04  
5211.6508e-03  
5221.3029e-04  
523-1.4927e-03 
5249.7664e-04  
5256.3026e-04  
526-1.4176e-03 
527-7.3851e-04 
5282.4739e-03  
529-4.2756e-05 
5305.6951e-04  
531-8.8852e-04 
5323.0844e-03  
533-1.7295e-04 
534-8.6898e-04 
5356.4479e-04  
536-3.8170e-03 
537-1.2459e-04 
538-2.8316e-04 
5391.9691e-03  
5401.5568e-03  
541-4.1272e-04 
5421.1762e-03  
5432.2572e-03  
544-6.1519e-04 
5451.4570e-04  
5463.7133e-04  
5474.2513e-04  
548-5.5092e-04 
549-4.8585e-04 
5504.5675e-05  
551-2.5157e-04 
5525.6519e-04  
553-3.3254e-04 
5549.8834e-05  
555-2.2501e-04 
5564.3900e-04  
5578.4550e-04  
558-2.6201e-04 
5591.0164e-04  
560-1.5339e-04 
561-2.7766e-04 
562-2.6489e-05 
5631.0237e-04  
5642.6552e-04  
565-4.6184e-04 
5661.2399e-04  
567-3.1785e-04 
5683.5714e-06  
569-1.5381e-04 
5705.2236e-04  
5712.3944e-04  
572-1.3466e-04 
5732.7948e-04  
574-3.5053e-04 
5756.1451e-04  
576-3.1361e-04 
577-2.4211e-04 
5781.2149e-04  
5798.4012e-04  
580-4.2068e-04 
5818.0541e-04  
5822.1176e-04  
583-7.1768e-04 
5841.7102e-04  
585-8.0516e-04 
5868.1745e-04  
587-9.6893e-05 
5886.2201e-04  
589-1.1104e-03 
5901.6947e-03  
591-6.8322e-04 
592-6.9070e-04 
5931.0688e-03  
5942.4102e-03  
595-2.5523e-03 
5961.0805e-03  
5979.6381e-04  
598-3.7875e-04 
599-1.1471e-03 
6001.7402e-03  
601-1.6013e-04 
6029.4381e-05  
6033.7882e-04  
604-1.8874e-04 
605-2.5787e-04 
606-6.3263e-05 
6071.1880e-03  
608-5.0994e-04 
6097.4754e-04  
610-1.5716e-03 
6112.8827e-04  
6122.0824e-04  
6138.5063e-04  
6145.4157e-04  
615-1.1890e-04 
616-2.0001e-04 
617-6.7465e-05 
6188.8091e-04  
6193.1050e-04  
620-5.3829e-04 
621-1.4204e-04 
6222.9027e-05  
6237.6883e-04  
624-6.5569e-04 
6257.7140e-04  
6261.1262e-03  
627-1.0605e-03 
6289.5572e-05  
629-5.1087e-04 
630-1.2858e-03 
631-6.4999e-04 
6325.0278e-04  
6331.0564e-03  
6341.2638e-03  
6355.6605e-04  
6367.8414e-04  
6379.3814e-05  
6381.7766e-04  
6394.2461e-04  
640-1.7643e-04 
6413.1851e-04  
642-1.1280e-04 
643-1.8898e-04 
644-3.5598e-04 
645-2.2434e-04 
646-8.2819e-05 
647-1.5503e-04 
6481.3061e-04  
649-7.1074e-04 
6506.0833e-04  
6513.4993e-04  
6522.3066e-05  
6539.8648e-06  
654-7.4700e-06 
655-1.9155e-04 
656-2.6968e-04 
6572.5925e-05  
6581.2463e-03  
659-7.3766e-04 
6601.3103e-04  
661-2.1833e-04 
6627.7148e-04  
6631.8855e-04  
664-2.1134e-04 
665-1.1178e-04 
666-3.8564e-04 
667-1.5576e-05 
6683.8080e-04  
6697.2469e-05  
670-1.1323e-04 
671-3.2519e-04 
6721.3340e-04  
6734.1148e-04  
674-3.6681e-04 
675-1.4524e-04 
6762.0977e-05  
677-9.1492e-05 
6783.4282e-04  
6797.8083e-05  
6803.6189e-04  
681-1.5497e-04 
682-5.1612e-05 
6832.1162e-04  
684-2.3900e-04 
685-7.0085e-05 
6862.7395e-04  
6872.3967e-04  
6881.9747e-04  
689-4.8030e-05 
690-1.7172e-04 
6912.2875e-05  
6923.6006e-04  
6934.4562e-04  
694-1.8224e-04 
6951.4833e-05  
6969.6095e-05  
6973.9770e-04  
6986.5803e-05  
699-3.0940e-04 
700-1.3296e-04 
701-1.5373e-05 
702-1.5560e-04 
7031.5328e-04  
7042.1065e-04  
705-2.6079e-05 
7062.3697e-04  
707-6.6553e-06 
708-1.2182e-04 
7091.1423e-04  
710-4.5596e-05 
7113.5062e-05  
7127.5388e-05  
713-1.1340e-04 
714-2.3432e-04 
715-4.1931e-05 
7161.9218e-05  
7173.5320e-05  
7183.4042e-04  
7194.3900e-06  
720-2.1053e-04 
7214.0389e-05  
7225.1474e-05  
723-2.9782e-05 
724-1.2389e-05 
7254.5220e-05  
7266.7420e-05  
7271.0976e-05  
728-9.5620e-06 
7292.3675e-05  
730-1.3567e-04 
7316.2620e-05  
732-2.6484e-05 
7331.2871e-04  
7348.6046e-05  
735-3.8383e-05 
736-1.2504e-04 
737-1.0540e-04 
7381.6612e-04  
7395.4149e-05  
7407.1361e-05  
7412.1214e-06  
7424.3343e-04  
7433.1928e-05  
7447.2182e-05  
7454.9693e-05  
7464.2971e-05  
747-1.3377e-04 
748-3.8851e-05 
749-2.1615e-05 
750-3.1859e-05 
751-1.0078e-04 
752-1.8089e-05 
753-3.3042e-05 
754-4.3621e-06 
7558.4808e-05  
756-1.2447e-07 
7572.7314e-04  
7581.5398e-04  
759-1.0465e-04 
760-7.6454e-06 
7612.0908e-05  
7623.8995e-05  
7631.1457e-04  
7642.5737e-04  
765-1.8460e-06 
766-5.7468e-05 

Decomposition over AOs for the left beta Dyson orbital:
1.20821806e-04
-2.72571514e-03
-5.80442387e-03
-2.14967874e-01
2.72018504e-02
-4.44395019e-02
2.69413261e-02
6.41220837e-02
7.82045139e-02
6.15524084e-02
3.49227757e-02
3.11917601e-02
-2.85847440e-01
2.61600876e-02
3.01827466e-02
-2.28155489e-02
5.40322773e-02
1.09341986e-01
-1.31413228e-01
1.41699220e-01
1.02074221e-01
-1.11471733e-01
6.84690245e-02
8.06484678e-02
-3.15814421e-02
-1.22783515e-01
-1.94878892e-02
8.94788579e-02
-3.56385823e-03
2.31904786e-03
5.54033866e-03
2.05487640e-02
-3.27966885e-03
5.04135269e-03
3.33680654e-02
6.62021861e-03
-9.20729270e-03
-2.79592422e-02
-6.15815251e-05
2.17303528e-04
3.36244807e-02
1.15458881e-01
-3.30138055e-03
-8.19017754e-02
8.46853230e-02
-3.09759461e-02
4.73012420e-02
1.27742538e-01
6.36581866e-02
5.30175792e-02
-3.21549890e-01
1.50868623e-02
-1.94929945e-02
-6.75551850e-02
8.42903457e-02
6.36594805e-03
-6.55376392e-02
-2.36861547e-01
-1.29339495e-01
2.58436599e-01
6.42058619e-02
6.03551269e-02
-4.71073382e-01
1.57809864e-01
4.37248936e-02
-3.51259733e-02
7.48639131e-03
-2.09192641e-02
-1.46730809e-02
-2.53841428e-02
9.27653364e-04
-9.97761226e-03
-2.81558181e-02
-1.98235254e-02
-3.78160107e-02
5.57373446e-03
3.47943790e-04
-7.91611955e-03
-1.32024450e-01
3.54406984e-02
-7.23979088e-03
-2.65478709e-02
2.40688608e-02
-5.32410942e-02
-4.69848711e-02
-9.24691994e-02
4.50076348e-02
2.79949553e-02
-2.49864624e-01
-4.98972889e-02
-8.11326215e-02
-4.09614995e-02
1.12590189e-01
6.91245372e-03
-1.52711398e-01
1.69450672e-01
8.27669631e-02
2.06873209e-01
-6.65536514e-03
9.81598116e-02
-1.99338362e-02
3.42037297e-02
-6.74078837e-02
-1.45319771e-02
-3.87418990e-03
2.00590278e-02
6.04803780e-03
2.58682486e-03
2.92398255e-03
-4.77816006e-02
-1.21933569e-02
9.22571616e-03
2.20039758e-02
3.20568276e-02
-3.05389170e-04
8.05930380e-03
1.59210073e-01
-1.99755931e-02
-2.36774630e-02
5.50769374e-02
-5.21897167e-02
-3.65479540e-02
-7.53044635e-02
-4.28004549e-02
-3.50628305e-02
-3.08840118e-02
2.53596299e-01
-7.35270789e-02
-5.06842907e-02
4.57182218e-03
-3.27549931e-02
8.84950170e-02
1.53837552e-01
-9.87403841e-02
-4.80129153e-02
-1.16149516e-01
-8.41538128e-02
1.65450736e-02
5.08580192e-02
1.09503088e-03
1.24380945e-01
-4.90658122e-02
-4.34719185e-03
8.04165328e-04
4.76112078e-03
2.02682896e-02
-4.25529430e-03
3.16692160e-02
2.20988364e-02
3.14136166e-03
1.81029864e-02
5.40983386e-02
2.98713028e-04
5.02643595e-03
-2.62398593e-02
1.15756006e-01
-1.04538008e-01
5.34600800e-02
-6.21414089e-02
2.05292010e-02
-8.15151896e-02
4.57111888e-02
-5.16634697e-02
-6.13744258e-02
3.23056915e-01
-2.95642328e-02
-2.83794687e-02
5.88142438e-02
2.89388518e-02
3.60205730e-02
1.34873034e-01
-1.72987490e-02
-3.17458653e-02
-4.65758074e-01
-9.30888050e-02
-1.74864358e-01
1.75973884e-01
1.14941583e-02
9.26802510e-02
9.42706815e-02
7.07804312e-03
-2.31093451e-02
-1.47238898e-02
-2.36895984e-02
-6.45219499e-06
4.48431099e-02
-2.52836031e-02
-1.48792957e-02
-2.15409338e-02
-5.82351206e-03
2.37463381e-04
-1.97472457e-03
-1.13448156e-02
-7.16936471e-02
3.93934121e-02
1.04626110e-02
-2.43050547e-02
5.47526943e-02
4.06050888e-02
2.37582206e-02
-3.01395729e-02
-3.30359101e-02
2.77452436e-01
4.99468696e-02
5.69315421e-04
4.05582645e-02
1.13886063e-02
-1.14206754e-01
1.38396147e-01
1.85869391e-02
1.92464510e-03
4.69409989e-02
-1.09431306e-01
-8.74551601e-03
1.86992187e-01
-5.27720425e-02
-7.80700106e-02
9.21812469e-02
-4.41455557e-03
2.05650995e-02
6.04807053e-03
5.20066054e-03
2.66800177e-03
[...]
-4.29360704e-05
1.61684118e-04
-1.27690786e-05
2.09804858e-04
9.42319558e-06
-3.46913473e-04
1.23269297e-04
-1.28290208e-04
2.51869592e-04
2.56971098e-05
7.15475750e-05
2.88808921e-03
7.69200727e-04
-7.58577084e-03
-1.66634145e-01
2.95671133e-02
1.37956395e-01
-4.64440141e-01
3.64646067e-01
2.03356429e+00
5.17077883e-03
-1.64268259e-03
8.01605929e-03
4.39724169e-05
-1.52350420e-04
2.82222383e-04
-6.09968334e-03
-9.56916801e-04
7.03104203e-04
-4.65920683e-02
-5.86375088e-04
-3.68585627e-02
8.74976162e-03
-1.48707439e-02
-8.39830226e-03
5.02761003e-02
-6.49085252e-02
1.88296819e-01
-5.58280442e-05
-1.26752470e-04
1.40628335e-04
3.08289592e-04
-3.13276082e-05
-9.78158506e-07
-1.48902333e-04
6.41667245e-04
4.07571518e-04
-1.74578434e-04
6.69677078e-04
2.83655687e-02
8.89132157e-03
3.41961874e-02
-3.00074460e-02
-8.71208008e-02
-2.23776672e-02
6.21563376e-01
-2.13289686e-01
-1.01323386e+00
1.89323869e-03
3.53916952e-03
-1.28566560e-02
-1.48517963e-03
5.62555417e-04
1.18633984e-04
-1.03455443e-02
5.23117500e-03
-1.20379754e-02
-1.03134393e-02
1.48625399e-02
-3.05693121e-04
1.61592910e-01
2.46554499e-02
5.14892363e-02
-1.28072275e-01
-3.08144777e-03
2.46653071e-02
2.64088122e-04
4.17868796e-05
-2.88938590e-04
-3.96407288e-05
-3.63116522e-04
-3.85054340e-04
-7.84633924e-05
4.85690858e-04
2.88302878e-04
3.88074635e-04
1.01453338e-04
5.14776407e-03
7.65534475e-04
-8.77769563e-03
-3.16185427e-01
3.31002914e-02
2.10326060e-01
-4.61337039e-01
3.99842300e-01
1.53413566e+00
-1.70438662e-03
-6.04318664e-03
1.17561780e-02
-2.11776849e-04
5.66526267e-04
8.36206062e-04
-2.18686116e-03
1.14372212e-02
7.71137962e-03
-6.82324175e-04
7.33499671e-02
3.40385024e-03
5.91209486e-02
-6.86483379e-02
2.33348818e-02
-1.11167293e-01
-7.71809539e-02
2.14490508e-01
-7.33934142e-06
2.67959154e-05
-3.80997259e-05
-2.98046790e-05
1.69801498e-05
1.28155029e-04
-4.33911860e-04
2.80839890e-04
-1.36776897e-04
7.02141739e-05
5.89173378e-04
2.55049472e-02
7.96203034e-03
4.54635480e-02
-1.88606667e-02
8.90325105e-02
-8.29748025e-02
2.02421543e-01
-4.05425192e-01
-1.11981214e+00
1.99293842e-03
6.30037548e-03
-1.72780823e-02
-2.00519127e-04
2.42515978e-03
-9.57357150e-04
-1.33965321e-03
1.55400646e-02
-6.73528017e-03
-3.16736521e-02
2.99932782e-02
2.27489839e-02
-5.17071071e-02
-2.52222399e-02
6.52831473e-02
-1.69378413e-01
1.32407006e-01
5.38179628e-02
-1.17774139e-04
3.77867377e-04
-2.24212323e-04
3.08834768e-04
2.79884443e-04
-4.06607387e-05
-7.87986561e-05
6.60931196e-04
-3.64258362e-04
-4.74628961e-04
4.58937762e-04
2.70187454e-02
3.02914200e-03
2.74839935e-01
1.07369728e-01
3.65102803e-02
-1.51949928e-01
-5.45209277e-02
9.00468543e-01
-2.02521010e-01
1.85825981e-03
-6.00786262e-03
-3.74535430e-03
-3.57282307e-04
-1.19676176e-02
-1.29100419e-03
-2.56664531e-03
5.53094612e-02
3.82732145e-03
-6.68594790e-03
-5.62112588e-02
7.37166471e-02
-1.15890282e-01
2.09909186e-02
1.95213322e-03
-1.00010290e-01
-4.29686101e-03
-9.95241565e-02
-3.47442051e-05
-1.88979177e-04
-4.50190960e-04
2.66025467e-04
2.18875818e-04
3.54204703e-04
5.11390678e-05
3.84702646e-04
6.07081740e-04
2.37518488e-03
2.87738602e-04
1.53628503e-02
7.71137423e-05
1.41052441e-01
1.18517587e-02
-3.11187369e-02
-4.20742948e-02
6.34711838e-01
1.07550566e+00
1.56042653e+00
-3.56013578e-03
-7.70263889e-03
8.97950223e-03
2.53570952e-03
-2.11480665e-03
6.18537443e-03
-6.74377260e-02
-1.30894910e-02
3.19110759e-02
8.25198980e-02
-5.81807539e-03
1.04123014e-01
2.04623935e-01
-2.52265174e-02
-8.74082281e-02
-9.83502063e-02
6.64172634e-02
-4.02210449e-01
2.49521941e-05
2.47554799e-04
2.79265553e-04
-7.31194196e-04
1.87571364e-04
2.27128569e-03
-7.28424011e-04
-6.00274890e-04
2.11047726e-03
-1.53754498e-03
4.31670071e-04
1.72110687e-02
3.59556758e-03
-1.08568545e-01
-1.33065028e-01
8.22381934e-02
-1.57437450e-01
-3.64627062e-01
-1.98258318e-02
-6.07697405e-01
1.73344082e-03
-7.50117499e-03
-1.64460578e-02
-1.61460908e-03
-1.63252899e-03
4.05578780e-03
-4.35545050e-02
-5.26569761e-02
2.81753100e-02
-3.02005663e-01
-1.84835254e-01
1.00963971e-01
1.26092818e-01
5.84038578e-02
-1.01032620e-01
3.18896410e-01
4.05047864e-02
1.80349435e-01
6.02185629e-04
1.09980001e-04
4.23993847e-04
-2.97642292e-04
-4.44206664e-04
2.40151972e-03
-4.34702825e-03
-2.39467725e-03
-3.09635664e-03
1.74144796e-04
6.52073443e-05
-3.61710019e-03
-6.02222557e-03
2.44169785e-02
1.00399458e-01
6.32460720e-02
-2.54441220e-01
-6.29971540e-01
6.46016677e-02
3.08645364e-01
-7.55950159e-03
3.07085259e-03
6.93088038e-04
-1.33992818e-03
9.05587830e-04
6.25343338e-03
-1.05169426e-01
-8.06428582e-02
-2.36734324e-02
1.27450434e-01
-3.90236617e-02
-1.20984595e-01
8.45495829e-02
2.81085404e-01
-3.15388872e-01
-1.00594211e-01
2.84092687e-01
1.24673568e-02
1.06180408e-03
1.04016164e-03
5.35525201e-04
5.34421506e-04
-3.32877729e-04
1.38456152e-03
1.43356633e-03
1.03309877e-03
-9.26172427e-04
-5.67903245e-05
3.25814052e-04
2.14215449e-02
5.97883974e-03
1.09312317e-01
3.31231551e-01
1.78299113e-01
-4.06123051e-01
-6.16051773e-01
-1.01892866e+00
4.58160948e-01
2.89472116e-03
1.55199761e-03
-7.14918262e-04
-9.69085639e-04
1.53990405e-03
1.15465907e-03
-5.69201156e-03
-6.34375193e-03
-2.90731227e-02
-4.35155370e-02
-3.83340142e-02
6.85231378e-02
3.49615631e-01
-1.51722849e-01
4.32235466e-02
1.12040051e-01
-4.74291038e-02
-1.92444787e-01
1.43290116e-04
-3.37004863e-05
3.72613899e-05
1.63805785e-04
3.82815790e-04
2.65939215e-04
-3.41437200e-04
2.10696091e-04
-5.03735193e-04
-3.21575262e-04
4.08079816e-04
2.34777351e-02
6.56663449e-03
8.80236697e-02
6.06083947e-01
3.32569873e-01
-5.22908363e-01
-1.17652933e+00
1.24937667e+00
-1.55820654e+00
6.13509565e-03
4.41909415e-03
-1.38812704e-02
-1.85700664e-03
2.41255719e-04
2.14391604e-03
1.29195101e-03
7.50062193e-03
1.94780961e-02
-3.29276612e-02
5.37777468e-03
3.15776318e-02
1.47928705e-01
-4.37443958e-02
-1.16847330e-01
1.38107850e-01
-2.07046741e-01
-1.55283954e-01
2.75230646e-04
2.87383855e-04
-8.86097584e-05
-1.82448065e-04
1.93152191e-04
2.76176111e-04
2.04378530e-04
4.45642436e-04
-1.34616620e-03
3.81233472e-04
3.62897556e-03
-9.40698467e-03
-1.70252895e-02
8.54687355e-03
1.57269448e-01
-1.19899615e-01
-1.03063921e-03
3.27485300e-04
2.25910946e-05
-1.70778078e-03
1.29057687e-03
3.60941836e-04
1.33644129e-03
-1.50767546e-02
1.10315727e-03
3.78215600e-02
-1.06333331e-01
-1.97245522e-01
4.14947893e-04
1.97362524e-04
1.13735875e-03
-8.48427186e-04
3.84217976e-04
2.84038723e-04
-3.55999466e-04
-1.38454311e-02
-5.39149372e-02
-2.67253625e-01
2.80375979e-01
-7.45739270e-02
4.45369582e-04
2.68719205e-04
-7.96868256e-04
-6.90425873e-04
-4.19657688e-04
5.94453373e-05
5.34459927e-03
-2.81148039e-03
-5.00625742e-02
-2.49827208e-02
3.04878292e-01
-2.65104472e-01
-7.04428590e-04
-9.42759094e-04
6.55547414e-04
-2.16456127e-03
-2.20955865e-03
2.72001826e-03
-1.86277739e-03
-1.01754312e-02
-7.52463535e-02
1.88428402e-01
3.84929928e-01
-4.38561259e-01
8.63388317e-04
-1.87860480e-04
-2.27669929e-04
9.83145326e-05
-1.02607439e-04
2.65599072e-05
3.18880026e-03
-2.54704410e-03
-2.25228020e-02
1.79713206e-01
3.22542388e-01
-1.95538878e-01
-1.69436325e-04
9.73578092e-04
5.64069125e-04
-1.19590370e-03
1.72423865e-03
2.51645672e-03
5.36862492e-03
-4.20601415e-03
-3.92405490e-02
7.56554172e-02
8.48464357e-02
-1.72264043e-01
7.91265655e-04
3.94430378e-04
9.77213480e-04
8.11983001e-04
8.38883345e-04
3.42169093e-03
2.96773041e-03
-2.77982678e-03
-1.99206315e-02
1.61684850e-01
5.67186350e-01
-5.16899562e-01
-1.15491629e-03
1.74486633e-04
2.32563557e-04
-2.36534586e-03
-1.09913473e-04
2.50462701e-03
-2.73947786e-04
-9.74268183e-03
-7.61796266e-02
4.17616600e-02
-7.08111189e-02
-9.92340026e-02
1.92042503e-04
-7.26419368e-04
-4.68497115e-04
-1.32196114e-04
-3.72921599e-04
-3.00621757e-04
1.44239326e-03
-1.08905791e-02
-8.00541600e-02
-1.24502732e-01
3.32253383e-01
2.84116799e-01
-3.12689212e-04
9.37841809e-04
8.41313619e-05
-3.61519587e-04
4.42935334e-04
-4.30867776e-04
2.10929363e-03
-1.08830553e-02
-1.10014061e-01
-1.44974018e-01
4.40813381e-01
3.40521281e-01
-3.62519777e-04
-3.53301596e-04
-5.36243453e-04
-1.03056342e-03
1.00771544e-03
5.35056658e-04
1.05036063e-02
1.13413810e-02
1.39584665e-02
-6.67276761e-02
-9.45871853e-02
-1.54550474e-01
5.43577776e-04
5.37839114e-04
1.09735386e-03
2.59675805e-03
2.24237388e-03
4.44362691e-03
-4.93824012e-04
-6.96000807e-03
-3.99686935e-02
-2.11335906e-01
2.06319366e-01
3.36865136e-01
3.03355620e-04
2.18895540e-04
-5.71463936e-04
-6.34408882e-05
6.07303059e-04
1.06064672e-04
-1.38583395e-03
-9.00378390e-03
-3.88115056e-02
1.57008063e-01
-1.53873817e-01
3.96089402e-01
1.54068815e-04
-8.28579304e-04
1.55890226e-04
2.97745621e-04
-7.14387067e-04
4.74266461e-04
3.86247541e-03
2.29698162e-05
-1.00506682e-02
-3.18888269e-01
-4.63750560e-01
4.84377091e-01
-8.11202676e-04
2.06204121e-04
-1.63253185e-04
-2.09127416e-03
6.83954261e-04
-3.42196713e-04
2.26889917e-03
-4.62675518e-03
-1.05953073e-01
-2.57757021e-01
-3.78323702e-02
5.11129331e-01
3.42745379e-04
-1.15983785e-03
1.38480016e-05
1.05051814e-03
-2.54854224e-03
3.97872892e-04
3.74877448e-03
-3.03428986e-03
-4.92220512e-02
-2.43815678e-01
-5.47899142e-01
1.34727524e-01
5.18767778e-04
6.61395205e-04
8.35607704e-04
1.17420954e-03
1.67401632e-03
2.37667739e-03
3.00303485e-03
-2.18596431e-03
-1.04654837e-01
-2.82344544e-01
-5.88129095e-01
8.24538920e-02
-8.92210432e-04
3.49969900e-04
-4.31698978e-04
-1.91920490e-03
9.16038350e-04
-1.93977612e-04
   *****

     End transition


 All requested transition properties have been computed


 Transition Properties  CPU 91.28 s  wall 30.15 s
 Total ccman2 time:   CPU 182413.68 s  wall 6276.97 s


 --------------------------------------------------------------

                    Orbital Energies (a.u.)
 --------------------------------------------------------------

 Alpha MOs
 -- Occupied --
-20.5973 -20.5970 -20.5796 -20.5778 -11.3613 -11.3603 -11.3281 -11.3265
-11.2980 -11.2973 -11.2830 -11.2800 -11.2477 -11.2436 -11.2434 -11.2274
-11.2271 -11.2216  -1.4334  -1.4158  -1.3953  -1.3876  -1.1565  -1.1040
 -1.0762  -1.0246  -0.9751  -0.9697  -0.9390  -0.9348  -0.9097  -0.8813
 -0.8110  -0.8042  -0.7518  -0.7121  -0.7073  -0.6906  -0.6619  -0.6598
 -0.6493  -0.6335  -0.6282  -0.6232  -0.6208  -0.6078  -0.5951  -0.5916
 -0.5830  -0.5669  -0.5551  -0.5483  -0.5371  -0.5323  -0.5320  -0.5304
 -0.5229  -0.5177  -0.5091  -0.4860  -0.4735  -0.4707  -0.4355  -0.4338
 -0.3877  -0.3619  -0.3364
 -- Virtual --
  0.0004   0.0011   0.0012   0.0013   0.0020   0.0020   0.0022   0.0024
  0.0027   0.0029   0.0038   0.0039   0.0043   0.0054   0.0056   0.0056
  0.0060   0.0063   0.0069   0.0071   0.0084   0.0087   0.0093   0.0096
  0.0100   0.0106   0.0107   0.0115   0.0121   0.0122   0.0124   0.0129
  0.0134   0.0138   0.0141   0.0151   0.0159   0.0162   0.0179   0.0186
  0.0189   0.0196   0.0203   0.0205   0.0207   0.0211   0.0216   0.0221
  0.0225   0.0233   0.0237   0.0238   0.0240   0.0244   0.0249   0.0255
  0.0266   0.0270   0.0273   0.0276   0.0280   0.0287   0.0290   0.0295
  0.0300   0.0319   0.0330   0.0341   0.0355   0.0359   0.0372   0.0377
  0.0381   0.0397   0.0407   0.0424   0.0429   0.0433   0.0446   0.0450
  0.0460   0.0464   0.0477   0.0479   0.0488   0.0493   0.0498   0.0511
  0.0516   0.0521   0.0525   0.0530   0.0541   0.0547   0.0562   0.0567
  0.0573   0.0591   0.0594   0.0607   0.0616   0.0619   0.0625   0.0634
  0.0640   0.0648   0.0657   0.0661   0.0666   0.0682   0.0692   0.0709
  0.0717   0.0723   0.0751   0.0760   0.0770   0.0790   0.0799   0.0809
  0.0829   0.0840   0.0847   0.0856   0.0869   0.0877   0.0885   0.0900
  0.0923   0.0928   0.0951   0.0976   0.0986   0.1001   0.1018   0.1038
  0.1058   0.1079   0.1080   0.1089   0.1112   0.1121   0.1134   0.1142
  0.1158   0.1177   0.1187   0.1195   0.1199   0.1212   0.1220   0.1230
  0.1245   0.1263   0.1283   0.1294   0.1306   0.1317   0.1322   0.1338
  0.1348   0.1357   0.1365   0.1373   0.1400   0.1407   0.1418   0.1442
  0.1447   0.1463   0.1482   0.1510   0.1521   0.1525   0.1564   0.1576
  0.1603   0.1615   0.1628   0.1635   0.1654   0.1676   0.1702   0.1712
  0.1741   0.1759   0.1805   0.1812   0.1832   0.1852   0.1866   0.1876
  0.1894   0.1918   0.1939   0.1947   0.1954   0.1964   0.1989   0.2007
  0.2016   0.2062   0.2076   0.2107   0.2119   0.2154   0.2158   0.2187
  0.2220   0.2248   0.2283   0.2301   0.2308   0.2334   0.2339   0.2388
  0.2421   0.2432   0.2434   0.2475   0.2489   0.2516   0.2559   0.2582
  0.2606   0.2630   0.2654   0.2672   0.2736   0.2763   0.2771   0.2775
  0.2806   0.2830   0.2860   0.2892   0.2897   0.2938   0.2953   0.2974
  0.2983   0.3036   0.3048   0.3068   0.3073   0.3110   0.3131   0.3166
  0.3208   0.3235   0.3270   0.3311   0.3316   0.3339   0.3389   0.3405
  0.3431   0.3513   0.3515   0.3557   0.3574   0.3619   0.3666   0.3696
  0.3712   0.3766   0.3792   0.3824   0.3846   0.3885   0.3923   0.3944
  0.3981   0.3995   0.4032   0.4069   0.4120   0.4147   0.4171   0.4227
  0.4260   0.4300   0.4348   0.4406   0.4436   0.4460   0.4514   0.4568
  0.4584   0.4619   0.4631   0.4690   0.4734   0.4782   0.4807   0.4837
  0.4877   0.4920   0.4936   0.5003   0.5027   0.5046   0.5090   0.5147
  0.5154   0.5175   0.5232   0.5255   0.5292   0.5345   0.5364   0.5382
  0.5424   0.5444   0.5462   0.5496   0.5515   0.5579   0.5615   0.5632
  0.5683   0.5726   0.5781   0.5822   0.5867   0.5889   0.5969   0.5996
  0.6058   0.6074   0.6096   0.6114   0.6170   0.6232   0.6293   0.6331
  0.6397   0.6428   0.6432   0.6472   0.6495   0.6532   0.6563   0.6607
  0.6662   0.6688   0.6714   0.6759   0.6774   0.6792   0.6835   0.6903
  0.6932   0.6947   0.6972   0.7035   0.7090   0.7099   0.7145   0.7169
  0.7232   0.7254   0.7266   0.7307   0.7326   0.7396   0.7415   0.7455
  0.7475   0.7481   0.7583   0.7612   0.7646   0.7661   0.7720   0.7729
  0.7757   0.7835   0.7889   0.7930   0.7984   0.8069   0.8089   0.8141
  0.8177   0.8185   0.8306   0.8339   0.8372   0.8391   0.8415   0.8439
  0.8480   0.8526   0.8588   0.8641   0.8682   0.8735   0.8745   0.8797
  0.8831   0.8884   0.8982   0.8991   0.9121   0.9159   0.9208   0.9258
  0.9288   0.9306   0.9386   0.9458   0.9484   0.9545   0.9593   0.9624
  0.9700   0.9753   0.9839   0.9951   1.0003   1.0093   1.0151   1.0169
  1.0214   1.0267   1.0429   1.0458   1.0552   1.0620   1.0638   1.0727
  1.0819   1.0829   1.0961   1.1040   1.1166   1.1212   1.1282   1.1323
  1.1388   1.1466   1.1536   1.1565   1.1642   1.1708   1.1743   1.1810
  1.1941   1.1948   1.2073   1.2153   1.2202   1.2274   1.2343   1.2410
  1.2538   1.2575   1.2698   1.2716   1.2763   1.2787   1.2865   1.2896
  1.3032   1.3125   1.3166   1.3292   1.3422   1.3485   1.3583   1.3702
  1.3754   1.3821   1.3899   1.4031   1.4213   1.4313   1.4454   1.4545
  1.4614   1.4657   1.4764   1.4783   1.4922   1.4991   1.5022   1.5062
  1.5292   1.5478   1.5526   1.5633   1.5714   1.5774   1.5864   1.5924
  1.5984   1.6141   1.6234   1.6316   1.6371   1.6506   1.6515   1.6720
  1.6777   1.6877   1.7038   1.7133   1.7174   1.7265   1.7286   1.7394
  1.7405   1.7466   1.7584   1.7649   1.7723   1.7827   1.7868   1.7936
  1.7954   1.8064   1.8093   1.8190   1.8229   1.8320   1.8359   1.8490
  1.8590   1.8705   1.8737   1.8835   1.8882   1.8942   1.9069   1.9141
  1.9233   1.9283   1.9303   1.9350   1.9468   1.9529   1.9572   1.9629
  1.9666   1.9764   1.9793   1.9982   2.0033   2.0168   2.0246   2.0288
  2.0349   2.0435   2.0471   2.0559   2.0651   2.0725   2.0816   2.0998
  2.1097   2.1212   2.1242   2.1271   2.1490   2.1527   2.1548   2.1579
  2.1709   2.1842   2.1864   2.1951   2.2017   2.2172   2.2247   2.2355
  2.2389   2.2472   2.2515   2.2633   2.2655   2.2772   2.2802   2.2826
  2.2933   2.3086   2.3110   2.3187   2.3255   2.3352   2.3457   2.3479
  2.3594   2.3607   2.3669   2.3797   2.3897   2.3954   2.4101   2.4122
  2.4256   2.4336   2.4495   2.4608   2.4716   2.4748   2.4802   2.5042
  2.5135   2.5244   2.5390   2.5423   2.5489   2.5672   2.5701   2.5756
  2.5811   2.5943   2.6120   2.6162   2.6291   2.6365   2.6439   2.6510
  2.6618   2.6673   2.6844   2.6948   2.7183   2.7297   2.7396   2.7450
  2.7576   2.7617   2.7731   2.7895   2.8090   2.8305   2.8461   2.8573
  2.8666   2.8730   2.8845   2.8888   2.9232   2.9288   2.9323   2.9457
  2.9594   2.9693   2.9802   3.0016   3.0349   3.0432   3.0511   3.0606
  3.1016   3.1184   3.1190   3.1322   3.1673   3.1836   3.1894   3.2317
  3.2592   3.2923   3.3246   3.3663   3.3958   3.4613   3.5150   3.5525
  3.6133   3.6251   3.7022   3.7378   3.8206   3.8336   3.8558   3.8828
  3.8872   3.9090   3.9315   3.9741   3.9984   4.0151   4.0208   4.0484
  4.0697   4.0884   4.1131   4.1320   4.1578   4.1943   4.2109   4.2474
  4.2843   4.3425   4.4015   5.0632
 --------------------------------------------------------------

          Ground-State Mulliken Net Atomic Charges

     Atom                 Charge (a.u.)
  ----------------------------------------
      1 C                     0.350500
      2 C                    -0.000339
      3 C                     1.281016
      4 C                     1.336080
      5 C                    -0.521890
      6 C                     1.030028
      7 O                    -1.241035
      8 O                    -0.968443
      9 O                    -1.018594
     10 C                     0.886787
     11 O                    -1.428264
     12 C                     0.872386
     13 C                     0.735644
     14 C                     1.130361
     15 C                     1.410049
     16 C                    -0.895148
     17 C                     0.872533
     18 C                     0.903105
     19 H                    -0.277589
     20 H                     0.078049
     21 H                     0.063563
     22 H                    -0.243884
     23 H                    -0.360335
     24 H                    -0.179299
     25 H                    -0.227692
     26 H                    -0.209225
     27 H                    -0.444732
     28 H                    -0.239566
     29 H                    -0.193393
     30 H                    -1.108207
     31 H                    -0.426708
     32 H                    -0.006309
     33 H                    -0.312352
     34 H                    -0.049135
     35 H                    -0.374260
     36 H                    -0.223703
  ----------------------------------------
  Sum of atomic charges =     0.000000

 -----------------------------------------------------------------
                    Cartesian Multipole Moments
 -----------------------------------------------------------------
    Charge (ESU x 10^10)
                 0.0000
    Dipole Moment (Debye)
         X       1.4805      Y       0.2395      Z      -2.6589
       Tot       3.0527
    Quadrupole Moments (Debye-Ang)
        XX    -112.4295     XY      -8.5619     YY    -105.9501
        XZ       6.3855     YZ      -7.9023     ZZ    -107.2997
    Octopole Moments (Debye-Ang^2)
       XXX      -4.8066    XXY      41.0352    XYY      -0.3124
       YYY      30.6505    XXZ     -26.3329    XYZ       9.6537
       YYZ      -9.5411    XZZ     -14.1300    YZZ      -1.9934
       ZZZ       0.6787
    Hexadecapole Moments (Debye-Ang^3)
      XXXX   -4651.6279   XXXY     -64.8697   XXYY   -1183.7858
      XYYY     -67.4332   YYYY   -1779.0732   XXXZ     123.5841
      XXYZ     -37.2371   XYYZ       7.6094   YYYZ     -29.2748
      XXZZ    -863.1892   XYZZ      -0.7794   YYZZ    -413.5174
      XZZZ      17.0527   YZZZ      10.2331   ZZZZ    -532.9068
 -----------------------------------------------------------------
 Total job time:  8398.70s(wall), 221574.25s(cpu) 
 Sat May 17 16:46:19 2025

        *************************************************************
        *                                                           *
        *  Thank you very much for using Q-Chem.  Have a nice day.  *
        *                                                           *
        *************************************************************


